! Sonnet Data File
! From Project: att_res16
! Data File Written: 04/06/2001 11:03:12
!< HDATE 04/04/2001 11:52:25
!< MDATE 04/04/2001 11:52:25
! All dimensions are in mil.
!  A = 200.000000(16), B = 200.000000(16), C = 275.000000, with 2 layers.
!  Lay H(  mil)   Erel    Etan(d)  Esigma    Murel   Mtan(d)  Nz  Subs
!   0  250.0000 1.000000 0.000000 0.000000 1.000000 0.000000   1    13
!   1  25.00000 9.800000 0.000000 0.000000 1.000000 0.000000   1     0
!   Estimated Memory:    1 MB                  Subsection Total:    13
! Ports:  2 Box-Wall
! Circuit has metals loss
# MHZ S MA R 50.00000
200.000000 0.143614 -2.628 0.856388 -3.076 0.856388 -3.076 0.143614 -2.628
!< P1 F=200.0 Eeff=(6.39661565 0.0) Z0=(51.2351073 0.0) R=0.0 C=0.09482706 
!< P2 F=200.0 Eeff=(6.39661565 0.0) Z0=(51.2351073 0.0) R=0.0 C=0.09482706 
300.000000 0.143613 -3.942 0.856393 -4.615 0.856393 -4.615 0.143613 -3.942
!< P1 F=300.0 Eeff=(6.39677746 0.0) Z0=(51.2344458 0.0) R=0.0 C=0.09482393 
!< P2 F=300.0 Eeff=(6.39677746 0.0) Z0=(51.2344458 0.0) R=0.0 C=0.09482393 
400.000000 0.143611 -5.258 0.856400 -6.153 0.856400 -6.153 0.143611 -5.258
!< P1 F=400.0 Eeff=(6.39701164 0.0) Z0=(51.2335507 0.0) R=0.0 C=0.09481955 
!< P2 F=400.0 Eeff=(6.39701164 0.0) Z0=(51.2335507 0.0) R=0.0 C=0.09481955 
