! Sonnet Data File
! From: emclient Version : 14.52
! From Project: V6
! Data is De-embedded 
! Data File Written: 08/21/2020 00:18:25
!< HDATE 08/20/2020 23:12:58
!< MDATE 08/20/2020 23:12:58
# GHZ Y MA R 1.0
1.00000e-4 9.423e-8 90.000 1.041e-9 -90.00 1.294e-8 -90.00 1.292e-8 -90.00
           4.27e-11 -90.00 5.44e-11 -90.00 9.21e-10 -90.00 9.34e-10 -90.00
           1.48e-12 -90.00 1.31e-12 -90.00
           9.60e-10 -90.00 9.357e-8 90.000 4.41e-11 -90.00 5.49e-11 -90.00
           1.293e-8 -90.00 1.291e-8 -90.00 1.14e-12 -90.00 1.31e-12 -90.00
           8.41e-10 -90.00 8.40e-10 -90.00
           1.294e-8 -90.00 4.40e-11 -90.00 6.763e-8 90.000 1.44e-11 -90.00
           4.77e-12 -90.00 1.43e-11 -90.00 1.282e-8 -90.00 1.13e-12 -90.00
           6.82e-13 90.000 7.96e-13 -90.00
           1.292e-8 -90.00 5.47e-11 -90.00 1.52e-11 -90.00 6.582e-8 90.000
           1.42e-11 -90.00 3.47e-12 -90.00 5.86e-13 -90.00 1.281e-8 -90.00
           9.52e-13 -90.00 3.13e-13 -90.00
           4.26e-11 -90.00 1.293e-8 -90.00 3.75e-12 -90.00 1.44e-11 -90.00
           6.734e-8 90.000 1.49e-11 -90.00 1.14e-13 90.000 6.82e-13 -90.00
           1.282e-8 -90.00 5.68e-13 -90.00
           5.40e-11 -90.00 1.291e-8 -90.00 1.44e-11 -90.00 3.39e-12 -90.00
           1.52e-11 -90.00 6.601e-8 90.000 1.14e-12 -90.00 1.99e-13 -90.00
           2.17e-18 90.000 1.281e-8 -90.00
           9.20e-10 -90.00 7.96e-13 -90.00 1.282e-8 -90.00 8.72e-13 -90.00
           9.09e-13 -90.00 1.02e-12 -90.00 4.127e-8 90.000 1.42e-14 90.000
           3.41e-13 -90.00 2.84e-14 90.000
           9.34e-10 -90.00 1.31e-12 -90.00 5.97e-13 -90.00 1.281e-8 -90.00
           3.98e-13 -90.00 1.85e-13 90.000 1.42e-13 -90.00 4.118e-8 90.000
           2.84e-14 90.000 4.55e-13 -90.00
           1.25e-12 -90.00 8.41e-10 -90.00 1.36e-12 -90.00 1.19e-12 -90.00
           1.282e-8 -90.00 6.82e-13 -90.00 2.27e-13 90.000 1.14e-13 90.000
           4.137e-8 90.000 2.27e-13 90.000
           1.36e-12 -90.00 8.40e-10 -90.00 1.71e-13 -90.00 2.84e-13 90.000
           1.59e-12 -90.00 1.281e-8 -90.00 1.42e-13 -90.00 9.09e-13 90.000
           6.82e-13 90.000 4.116e-8 90.000
!< P1 F=1.0e-4 Eeff=(undefined: sl) Z0=(undefined: sl) R=0.0 C=0.0 
!< P2 F=1.0e-4 Eeff=(undefined: sl) Z0=(undefined: sl) R=0.0 C=0.0 
!< P3 F=1.0e-4 Eeff=(undefined: sl) Z0=(undefined: sl) R=0.0 C=0.0 
!< P4 F=1.0e-4 Eeff=(undefined: sl) Z0=(undefined: sl) R=0.0 C=0.0 
!< P5 F=1.0e-4 Eeff=(undefined: sl) Z0=(undefined: sl) R=0.0 C=0.0 
!< P6 F=1.0e-4 Eeff=(undefined: sl) Z0=(undefined: sl) R=0.0 C=0.0 
!< P7 F=1.0e-4 Eeff=(undefined: sl) Z0=(undefined: sl) R=0.0 C=0.0 
!< P8 F=1.0e-4 Eeff=(undefined: sl) Z0=(undefined: sl) R=0.0 C=0.0 
!< P9 F=1.0e-4 Eeff=(undefined: sl) Z0=(undefined: sl) R=0.0 C=0.0 
!< P10 F=1.0e-4 Eeff=(undefined: sl) Z0=(undefined: sl) R=0.0 C=0.0 
0.00500000 4.712e-6 90.000 4.396e-8 -90.00 6.471e-7 -90.00 6.460e-7 -90.00
           2.139e-9 -90.00 2.717e-9 -90.00 4.604e-8 -90.00 4.669e-8 -90.00
           6.60e-11 -90.00 6.58e-11 -90.00
           4.396e-8 -90.00 4.675e-6 90.000 2.196e-9 -90.00 2.737e-9 -90.00
           6.465e-7 -90.00 6.453e-7 -90.00 6.63e-11 -90.00 6.60e-11 -90.00
           4.202e-8 -90.00 4.201e-8 -90.00
           6.471e-7 -90.00 2.196e-9 -90.00 3.368e-6 90.000 7.20e-10 -90.00
           1.76e-10 -90.00 7.21e-10 -90.00 6.408e-7 -90.00 4.66e-11 -90.00
           4.99e-12 -90.00 2.94e-11 -90.00
           6.460e-7 -90.00 2.737e-9 -90.00 7.20e-10 -90.00 3.305e-6 90.000
           7.14e-10 -90.00 1.75e-10 -90.00 2.89e-11 -90.00 6.403e-7 -90.00
           4.59e-11 -90.00 5.93e-12 -90.00
           2.139e-9 -90.00 6.465e-7 -90.00 1.76e-10 -90.00 7.14e-10 -90.00
           3.366e-6 90.000 7.19e-10 -90.00 5.52e-12 -90.00 2.91e-11 -90.00
           6.412e-7 -90.00 4.63e-11 -90.00
           2.717e-9 -90.00 6.453e-7 -90.00 7.21e-10 -90.00 1.75e-10 -90.00
           7.19e-10 -90.00 3.302e-6 90.000 4.63e-11 -90.00 5.83e-12 -90.00
           2.83e-11 -90.00 6.404e-7 -90.00
           4.604e-8 -90.00 6.63e-11 -90.00 6.408e-7 -90.00 2.89e-11 -90.00
           5.52e-12 -90.00 4.63e-11 -90.00 2.061e-6 90.000 4.09e-12 -90.00
           5.29e-13 -89.96 4.10e-12 -90.00
           4.669e-8 -90.00 6.60e-11 -90.00 4.66e-11 -90.00 6.403e-7 -90.00
           2.91e-11 -90.00 5.83e-12 -90.00 4.09e-12 -90.00 2.066e-6 90.000
           4.08e-12 -90.00 6.27e-13 -90.02
           6.60e-11 -90.00 4.202e-8 -90.00 4.99e-12 -90.00 4.59e-11 -90.00
           6.412e-7 -90.00 2.83e-11 -90.00 5.29e-13 -89.96 4.08e-12 -90.00
           2.066e-6 90.000 3.92e-12 -90.00
           6.58e-11 -90.00 4.201e-8 -90.00 2.94e-11 -90.00 5.93e-12 -90.00
           4.63e-11 -90.00 6.404e-7 -90.00 4.10e-12 -90.00 6.27e-13 -90.02
           3.92e-12 -90.00 2.065e-6 90.000
0.01000000 9.424e-6 90.000 8.776e-8 -90.00 1.294e-6 -90.00 1.292e-6 -90.00
           4.278e-9 -90.00 5.434e-9 -90.00 9.208e-8 -90.00 9.338e-8 -90.00
           1.32e-10 -90.00 1.32e-10 -90.00
           8.776e-8 -90.00 9.350e-6 90.000 4.392e-9 -90.00 5.474e-9 -90.00
           1.293e-6 -90.00 1.291e-6 -90.00 1.33e-10 -90.00 1.32e-10 -90.00
           8.405e-8 -90.00 8.401e-8 -90.00
           1.294e-6 -90.00 4.392e-9 -90.00 6.736e-6 90.000 1.439e-9 -90.00
           3.51e-10 -90.00 1.442e-9 -90.00 1.282e-6 -90.00 9.31e-11 -90.00
           1.08e-11 -90.00 5.85e-11 -90.00
           1.292e-6 -90.00 5.474e-9 -90.00 1.439e-9 -90.00 6.610e-6 90.000
           1.428e-9 -90.00 3.50e-10 -90.00 5.78e-11 -90.00 1.281e-6 -90.00
           9.18e-11 -90.00 1.17e-11 -90.00
           4.278e-9 -90.00 1.293e-6 -90.00 3.51e-10 -90.00 1.428e-9 -90.00
           6.731e-6 90.000 1.437e-9 -90.00 1.13e-11 -90.00 5.81e-11 -90.00
           1.282e-6 -90.00 9.30e-11 -90.00
           5.434e-9 -90.00 1.291e-6 -90.00 1.442e-9 -90.00 3.50e-10 -90.00
           1.437e-9 -90.00 6.605e-6 90.000 9.23e-11 -90.00 1.16e-11 -90.00
           5.72e-11 -90.00 1.281e-6 -90.00
           9.208e-8 -90.00 1.33e-10 -90.00 1.282e-6 -90.00 5.78e-11 -90.00
           1.13e-11 -90.00 9.23e-11 -90.00 4.122e-6 90.000 8.28e-12 -90.00
           7.21e-13 -89.95 8.32e-12 -90.00
           9.338e-8 -90.00 1.32e-10 -90.00 9.31e-11 -90.00 1.281e-6 -90.00
           5.81e-11 -90.00 1.16e-11 -90.00 8.28e-12 -90.00 4.132e-6 90.000
           8.27e-12 -90.00 8.02e-13 -90.04
           1.32e-10 -90.00 8.405e-8 -90.00 1.08e-11 -90.00 9.18e-11 -90.00
           1.282e-6 -90.00 5.72e-11 -90.00 7.21e-13 -89.95 8.27e-12 -90.00
           4.132e-6 90.000 8.14e-12 -90.00
           1.32e-10 -90.00 8.401e-8 -90.00 5.85e-11 -90.00 1.17e-11 -90.00
           9.30e-11 -90.00 1.281e-6 -90.00 8.32e-12 -90.00 8.02e-13 -90.04
           8.14e-12 -90.00 4.131e-6 90.000
0.01500000 1.414e-5 90.000 1.316e-7 -90.00 1.941e-6 -90.00 1.938e-6 -90.00
           6.417e-9 -90.00 8.151e-9 -90.00 1.381e-7 -90.00 1.401e-7 -90.00
           1.98e-10 -90.00 1.97e-10 -90.00
           1.316e-7 -90.00 1.402e-5 90.000 6.588e-9 -90.00 8.210e-9 -90.00
           1.940e-6 -90.00 1.936e-6 -90.00 2.00e-10 -90.00 1.98e-10 -90.00
           1.261e-7 -90.00 1.260e-7 -90.00
           1.941e-6 -90.00 6.588e-9 -90.00 1.010e-5 90.000 2.159e-9 -90.00
           5.26e-10 -90.00 2.163e-9 -90.00 1.922e-6 -90.00 1.40e-10 -90.00
           1.66e-11 -90.00 8.77e-11 -90.00
           1.938e-6 -90.00 8.210e-9 -90.00 2.159e-9 -90.00 9.916e-6 90.000
           2.142e-9 -90.00 5.26e-10 -90.00 8.67e-11 -90.00 1.921e-6 -90.00
           1.38e-10 -90.00 1.74e-11 -90.00
           6.417e-9 -90.00 1.940e-6 -90.00 5.26e-10 -90.00 2.142e-9 -90.00
           1.010e-5 90.000 2.155e-9 -90.00 1.70e-11 -90.00 8.71e-11 -90.00
           1.923e-6 -90.00 1.40e-10 -90.00
           8.151e-9 -90.00 1.936e-6 -90.00 2.163e-9 -90.00 5.26e-10 -90.00
           2.155e-9 -90.00 9.907e-6 90.000 1.38e-10 -90.00 1.73e-11 -90.00
           8.61e-11 -90.00 1.921e-6 -90.00
           1.381e-7 -90.00 2.00e-10 -90.00 1.922e-6 -90.00 8.67e-11 -90.00
           1.70e-11 -90.00 1.38e-10 -90.00 6.182e-6 90.000 1.25e-11 -90.00
           9.09e-13 -89.94 1.25e-11 -90.00
           1.401e-7 -90.00 1.98e-10 -90.00 1.40e-10 -90.00 1.921e-6 -90.00
           8.71e-11 -90.00 1.73e-11 -90.00 1.25e-11 -90.00 6.199e-6 90.000
           1.25e-11 -90.00 9.76e-13 -90.04
           1.98e-10 -90.00 1.261e-7 -90.00 1.66e-11 -90.00 1.38e-10 -90.00
           1.923e-6 -90.00 8.61e-11 -90.00 9.09e-13 -89.94 1.25e-11 -90.00
           6.197e-6 90.000 1.24e-11 -90.00
           1.97e-10 -90.00 1.260e-7 -90.00 8.77e-11 -90.00 1.74e-11 -90.00
           1.40e-10 -90.00 1.921e-6 -90.00 1.25e-11 -90.00 9.76e-13 -90.04
           1.24e-11 -90.00 6.196e-6 90.000
0.02000000 1.885e-5 90.000 1.754e-7 -90.00 2.589e-6 -90.00 2.584e-6 -90.00
           8.555e-9 -90.00 1.087e-8 -90.00 1.842e-7 -90.00 1.868e-7 -90.00
           2.64e-10 -90.00 2.63e-10 -90.00
           1.754e-7 -90.00 1.870e-5 90.000 8.784e-9 -90.00 1.095e-8 -90.00
           2.586e-6 -90.00 2.581e-6 -90.00 2.66e-10 -90.00 2.64e-10 -90.00
           1.681e-7 -90.00 1.680e-7 -90.00
           2.589e-6 -90.00 8.784e-9 -90.00 1.347e-5 90.000 2.879e-9 -90.00
           7.01e-10 -90.00 2.885e-9 -90.00 2.563e-6 -90.00 1.86e-10 -90.00
           2.24e-11 -90.00 1.17e-10 -90.00
           2.584e-6 -90.00 1.095e-8 -90.00 2.879e-9 -90.00 1.322e-5 90.000
           2.855e-9 -90.00 7.01e-10 -90.00 1.16e-10 -90.00 2.561e-6 -90.00
           1.84e-10 -90.00 2.32e-11 -90.00
           8.555e-9 -90.00 2.586e-6 -90.00 7.01e-10 -90.00 2.855e-9 -90.00
           1.346e-5 90.000 2.873e-9 -90.00 2.28e-11 -90.00 1.16e-10 -90.00
           2.565e-6 -90.00 1.87e-10 -90.00
           1.087e-8 -90.00 2.581e-6 -90.00 2.885e-9 -90.00 7.01e-10 -90.00
           2.873e-9 -90.00 1.321e-5 90.000 1.85e-10 -90.00 2.31e-11 -90.00
           1.15e-10 -90.00 2.562e-6 -90.00
           1.842e-7 -90.00 2.66e-10 -90.00 2.563e-6 -90.00 1.16e-10 -90.00
           2.28e-11 -90.00 1.85e-10 -90.00 8.243e-6 90.000 1.66e-11 -90.00
           1.09e-12 -89.94 1.67e-11 -90.00
           1.868e-7 -90.00 2.64e-10 -90.00 1.86e-10 -90.00 2.561e-6 -90.00
           1.16e-10 -90.00 2.31e-11 -90.00 1.66e-11 -90.00 8.265e-6 90.000
           1.66e-11 -90.00 1.14e-12 -90.04
           2.64e-10 -90.00 1.681e-7 -90.00 2.24e-11 -90.00 1.84e-10 -90.00
           2.565e-6 -90.00 1.15e-10 -90.00 1.09e-12 -89.94 1.66e-11 -90.00
           8.263e-6 90.000 1.66e-11 -90.00
           2.63e-10 -90.00 1.680e-7 -90.00 1.17e-10 -90.00 2.32e-11 -90.00
           1.87e-10 -90.00 2.562e-6 -90.00 1.67e-11 -90.00 1.14e-12 -90.04
           1.66e-11 -90.00 8.262e-6 90.000
0.02500000 2.356e-5 90.000 2.192e-7 -90.00 3.236e-6 -90.00 3.230e-6 -90.00
           1.069e-8 -90.00 1.358e-8 -90.00 2.302e-7 -90.00 2.335e-7 -90.00
           3.30e-10 -90.00 3.30e-10 -90.00
           2.192e-7 -90.00 2.337e-5 90.000 1.098e-8 -90.00 1.368e-8 -90.00
           3.233e-6 -90.00 3.226e-6 -90.00 3.33e-10 -90.00 3.31e-10 -90.00
           2.101e-7 -90.00 2.100e-7 -90.00
           3.236e-6 -90.00 1.098e-8 -90.00 1.684e-5 90.000 3.598e-9 -90.00
           8.76e-10 -90.00 3.606e-9 -90.00 3.204e-6 -90.00 2.33e-10 -90.00
           2.82e-11 -90.00 1.46e-10 -90.00
           3.230e-6 -90.00 1.368e-8 -90.00 3.598e-9 -90.00 1.653e-5 90.000
           3.569e-9 -90.00 8.76e-10 -90.00 1.45e-10 -90.00 3.201e-6 -90.00
           2.30e-10 -90.00 2.89e-11 -90.00
           1.069e-8 -90.00 3.233e-6 -90.00 8.76e-10 -90.00 3.569e-9 -90.00
           1.683e-5 90.000 3.591e-9 -90.00 2.86e-11 -90.00 1.45e-10 -90.00
           3.206e-6 -90.00 2.33e-10 -90.00
           1.358e-8 -90.00 3.226e-6 -90.00 3.606e-9 -90.00 8.76e-10 -90.00
           3.591e-9 -90.00 1.651e-5 90.000 2.31e-10 -90.00 2.89e-11 -90.00
           1.44e-10 -90.00 3.202e-6 -90.00
           2.302e-7 -90.00 3.33e-10 -90.00 3.204e-6 -90.00 1.45e-10 -90.00
           2.86e-11 -90.00 2.31e-10 -90.00 1.030e-5 90.000 2.08e-11 -90.00
           1.27e-12 -89.94 2.09e-11 -90.00
           2.335e-7 -90.00 3.31e-10 -90.00 2.33e-10 -90.00 3.201e-6 -90.00
           1.45e-10 -90.00 2.89e-11 -90.00 2.08e-11 -90.00 1.033e-5 90.000
           2.08e-11 -90.00 1.31e-12 -90.04
           3.30e-10 -90.00 2.101e-7 -90.00 2.82e-11 -90.00 2.30e-10 -90.00
           3.206e-6 -90.00 1.44e-10 -90.00 1.27e-12 -89.94 2.08e-11 -90.00
           1.033e-5 90.000 2.07e-11 -90.00
           3.30e-10 -90.00 2.100e-7 -90.00 1.46e-10 -90.00 2.89e-11 -90.00
           2.33e-10 -90.00 3.202e-6 -90.00 2.09e-11 -90.00 1.31e-12 -90.04
           2.07e-11 -90.00 1.033e-5 90.000
0.03000000 2.827e-5 90.000 2.630e-7 -90.00 3.883e-6 -90.00 3.876e-6 -90.00
           1.283e-8 -90.00 1.630e-8 -90.00 2.762e-7 -90.00 2.801e-7 -90.00
           3.96e-10 -90.00 3.96e-10 -90.00
           2.630e-7 -90.00 2.805e-5 90.000 1.317e-8 -90.00 1.642e-8 -90.00
           3.879e-6 -90.00 3.872e-6 -90.00 4.00e-10 -90.00 3.97e-10 -90.00
           2.521e-7 -90.00 2.520e-7 -90.00
           3.883e-6 -90.00 1.317e-8 -90.00 2.021e-5 90.000 4.317e-9 -90.00
           1.051e-9 -90.00 4.326e-9 -90.00 3.845e-6 -90.00 2.79e-10 -90.00
           3.41e-11 -90.00 1.75e-10 -90.00
           3.876e-6 -90.00 1.642e-8 -90.00 4.317e-9 -90.00 1.983e-5 90.000
           4.283e-9 -90.00 1.051e-9 -90.00 1.74e-10 -90.00 3.842e-6 -90.00
           2.76e-10 -90.00 3.47e-11 -90.00
           1.283e-8 -90.00 3.879e-6 -90.00 1.051e-9 -90.00 4.283e-9 -90.00
           2.019e-5 90.000 4.309e-9 -90.00 3.44e-11 -90.00 1.74e-10 -90.00
           3.847e-6 -90.00 2.80e-10 -90.00
           1.630e-8 -90.00 3.872e-6 -90.00 4.326e-9 -90.00 1.051e-9 -90.00
           4.309e-9 -90.00 1.981e-5 90.000 2.77e-10 -90.00 3.47e-11 -90.00
           1.73e-10 -90.00 3.842e-6 -90.00
           2.762e-7 -90.00 4.00e-10 -90.00 3.845e-6 -90.00 1.74e-10 -90.00
           3.44e-11 -90.00 2.77e-10 -90.00 1.236e-5 90.000 2.49e-11 -90.00
           1.43e-12 -89.94 2.51e-11 -90.00
           2.801e-7 -90.00 3.97e-10 -90.00 2.79e-10 -90.00 3.842e-6 -90.00
           1.74e-10 -90.00 3.47e-11 -90.00 2.49e-11 -90.00 1.240e-5 90.000
           2.49e-11 -90.00 1.46e-12 -90.04
           3.96e-10 -90.00 2.521e-7 -90.00 3.41e-11 -90.00 2.76e-10 -90.00
           3.847e-6 -90.00 1.73e-10 -90.00 1.43e-12 -89.94 2.49e-11 -90.00
           1.239e-5 90.000 2.49e-11 -90.00
           3.96e-10 -90.00 2.520e-7 -90.00 1.75e-10 -90.00 3.47e-11 -90.00
           2.80e-10 -90.00 3.842e-6 -90.00 2.51e-11 -90.00 1.46e-12 -90.04
           2.49e-11 -90.00 1.239e-5 90.000
0.03500000 3.299e-5 90.000 3.068e-7 -90.00 4.530e-6 -90.00 4.522e-6 -90.00
           1.497e-8 -90.00 1.901e-8 -90.00 3.223e-7 -90.00 3.268e-7 -90.00
           4.63e-10 -90.00 4.62e-10 -90.00
           3.068e-7 -90.00 3.272e-5 90.000 1.537e-8 -90.00 1.915e-8 -90.00
           4.526e-6 -90.00 4.517e-6 -90.00 4.67e-10 -90.00 4.64e-10 -90.00
           2.942e-7 -90.00 2.940e-7 -90.00
           4.530e-6 -90.00 1.537e-8 -90.00 2.358e-5 90.000 5.037e-9 -90.00
           1.226e-9 -90.00 5.047e-9 -90.00 4.486e-6 -90.00 3.26e-10 -90.00
           3.99e-11 -90.00 2.05e-10 -90.00
           4.522e-6 -90.00 1.915e-8 -90.00 5.037e-9 -90.00 2.314e-5 90.000
           4.996e-9 -90.00 1.227e-9 -90.00 2.03e-10 -90.00 4.482e-6 -90.00
           3.22e-10 -90.00 4.05e-11 -90.00
           1.497e-8 -90.00 4.526e-6 -90.00 1.226e-9 -90.00 4.996e-9 -90.00
           2.356e-5 90.000 5.027e-9 -90.00 4.02e-11 -90.00 2.03e-10 -90.00
           4.488e-6 -90.00 3.27e-10 -90.00
           1.901e-8 -90.00 4.517e-6 -90.00 5.047e-9 -90.00 1.227e-9 -90.00
           5.027e-9 -90.00 2.312e-5 90.000 3.23e-10 -90.00 4.05e-11 -90.00
           2.02e-10 -90.00 4.483e-6 -90.00
           3.223e-7 -90.00 4.67e-10 -90.00 4.486e-6 -90.00 2.03e-10 -90.00
           4.02e-11 -90.00 3.23e-10 -90.00 1.443e-5 90.000 2.91e-11 -90.00
           1.59e-12 -89.94 2.92e-11 -90.00
           3.268e-7 -90.00 4.64e-10 -90.00 3.26e-10 -90.00 4.482e-6 -90.00
           2.03e-10 -90.00 4.05e-11 -90.00 2.91e-11 -90.00 1.446e-5 90.000
           2.91e-11 -90.00 1.60e-12 -90.04
           4.63e-10 -90.00 2.942e-7 -90.00 3.99e-11 -90.00 3.22e-10 -90.00
           4.488e-6 -90.00 2.02e-10 -90.00 1.59e-12 -89.94 2.91e-11 -90.00
           1.446e-5 90.000 2.91e-11 -90.00
           4.62e-10 -90.00 2.940e-7 -90.00 2.05e-10 -90.00 4.05e-11 -90.00
           3.27e-10 -90.00 4.483e-6 -90.00 2.92e-11 -90.00 1.60e-12 -90.04
           2.91e-11 -90.00 1.446e-5 90.000
0.04000000 3.770e-5 90.000 3.506e-7 -90.00 5.177e-6 -90.00 5.168e-6 -90.00
           1.710e-8 -90.00 2.173e-8 -90.00 3.683e-7 -90.00 3.735e-7 -90.00
           5.29e-10 -90.00 5.29e-10 -90.00
           3.506e-7 -90.00 3.740e-5 90.000 1.756e-8 -90.00 2.189e-8 -90.00
           5.172e-6 -90.00 5.162e-6 -90.00 5.35e-10 -90.00 5.31e-10 -90.00
           3.362e-7 -90.00 3.360e-7 -90.00
           5.177e-6 -90.00 1.756e-8 -90.00 2.694e-5 90.000 5.756e-9 -90.00
           1.401e-9 -90.00 5.768e-9 -90.00 5.126e-6 -90.00 3.72e-10 -90.00
           4.58e-11 -90.00 2.34e-10 -90.00
           5.168e-6 -90.00 2.189e-8 -90.00 5.756e-9 -90.00 2.644e-5 90.000
           5.710e-9 -90.00 1.402e-9 -90.00 2.32e-10 -90.00 5.122e-6 -90.00
           3.68e-10 -90.00 4.64e-11 -90.00
           1.710e-8 -90.00 5.172e-6 -90.00 1.401e-9 -90.00 5.710e-9 -90.00
           2.692e-5 90.000 5.744e-9 -90.00 4.61e-11 -90.00 2.33e-10 -90.00
           5.129e-6 -90.00 3.74e-10 -90.00
           2.173e-8 -90.00 5.162e-6 -90.00 5.768e-9 -90.00 1.402e-9 -90.00
           5.744e-9 -90.00 2.642e-5 90.000 3.69e-10 -90.00 4.63e-11 -90.00
           2.31e-10 -90.00 5.123e-6 -90.00
           3.683e-7 -90.00 5.35e-10 -90.00 5.126e-6 -90.00 2.32e-10 -90.00
           4.61e-11 -90.00 3.69e-10 -90.00 1.649e-5 90.000 3.32e-11 -90.00
           1.73e-12 -89.94 3.33e-11 -90.00
           3.735e-7 -90.00 5.31e-10 -90.00 3.72e-10 -90.00 5.122e-6 -90.00
           2.33e-10 -90.00 4.63e-11 -90.00 3.32e-11 -90.00 1.653e-5 90.000
           3.32e-11 -90.00 1.73e-12 -90.04
           5.29e-10 -90.00 3.362e-7 -90.00 4.58e-11 -90.00 3.68e-10 -90.00
           5.129e-6 -90.00 2.31e-10 -90.00 1.73e-12 -89.94 3.32e-11 -90.00
           1.653e-5 90.000 3.32e-11 -90.00
           5.29e-10 -90.00 3.360e-7 -90.00 2.34e-10 -90.00 4.64e-11 -90.00
           3.74e-10 -90.00 5.123e-6 -90.00 3.33e-11 -90.00 1.73e-12 -90.04
           3.32e-11 -90.00 1.652e-5 90.000
0.04500000 4.241e-5 90.000 3.944e-7 -90.00 5.824e-6 -90.00 5.814e-6 -90.00
           1.924e-8 -90.00 2.444e-8 -90.00 4.144e-7 -90.00 4.202e-7 -90.00
           5.96e-10 -90.00 5.96e-10 -90.00
           3.944e-7 -90.00 4.207e-5 90.000 1.976e-8 -90.00 2.462e-8 -90.00
           5.819e-6 -90.00 5.808e-6 -90.00 6.02e-10 -90.00 5.98e-10 -90.00
           3.782e-7 -90.00 3.780e-7 -90.00
           5.824e-6 -90.00 1.976e-8 -90.00 3.031e-5 90.000 6.475e-9 -90.00
           1.576e-9 -90.00 6.488e-9 -90.00 5.767e-6 -90.00 4.19e-10 -90.00
           5.17e-11 -90.00 2.64e-10 -90.00
           5.814e-6 -90.00 2.462e-8 -90.00 6.475e-9 -90.00 2.975e-5 90.000
           6.423e-9 -90.00 1.577e-9 -90.00 2.61e-10 -90.00 5.763e-6 -90.00
           4.14e-10 -90.00 5.22e-11 -90.00
           1.924e-8 -90.00 5.819e-6 -90.00 1.576e-9 -90.00 6.423e-9 -90.00
           3.029e-5 90.000 6.462e-9 -90.00 5.19e-11 -90.00 2.62e-10 -90.00
           5.770e-6 -90.00 4.21e-10 -90.00
           2.444e-8 -90.00 5.808e-6 -90.00 6.488e-9 -90.00 1.577e-9 -90.00
           6.462e-9 -90.00 2.972e-5 90.000 4.16e-10 -90.00 5.22e-11 -90.00
           2.60e-10 -90.00 5.764e-6 -90.00
           4.144e-7 -90.00 6.02e-10 -90.00 5.767e-6 -90.00 2.61e-10 -90.00
           5.19e-11 -90.00 4.16e-10 -90.00 1.855e-5 90.000 3.72e-11 -90.00
           1.85e-12 -89.94 3.74e-11 -90.00
           4.202e-7 -90.00 5.98e-10 -90.00 4.19e-10 -90.00 5.763e-6 -90.00
           2.62e-10 -90.00 5.22e-11 -90.00 3.72e-11 -90.00 1.860e-5 90.000
           3.72e-11 -90.00 1.84e-12 -90.04
           5.96e-10 -90.00 3.782e-7 -90.00 5.17e-11 -90.00 4.14e-10 -90.00
           5.770e-6 -90.00 2.60e-10 -90.00 1.85e-12 -89.94 3.72e-11 -90.00
           1.859e-5 90.000 3.73e-11 -90.00
           5.96e-10 -90.00 3.780e-7 -90.00 2.64e-10 -90.00 5.22e-11 -90.00
           4.21e-10 -90.00 5.764e-6 -90.00 3.74e-11 -90.00 1.84e-12 -90.04
           3.73e-11 -90.00 1.859e-5 90.000
0.05000000 4.712e-5 90.000 4.381e-7 -90.00 6.471e-6 -90.00 6.460e-6 -90.00
           2.138e-8 -90.00 2.716e-8 -90.00 4.604e-7 -90.00 4.669e-7 -90.00
           6.63e-10 -90.00 6.63e-10 -90.00
           4.381e-7 -90.00 4.675e-5 90.000 2.195e-8 -90.00 2.735e-8 -90.00
           6.465e-6 -90.00 6.453e-6 -90.00 6.70e-10 -90.00 6.65e-10 -90.00
           4.202e-7 -90.00 4.201e-7 -90.00
           6.471e-6 -90.00 2.195e-8 -90.00 3.368e-5 90.000 7.193e-9 -90.00
           1.751e-9 -90.00 7.209e-9 -90.00 6.408e-6 -90.00 4.66e-10 -90.00
           5.76e-11 -90.00 2.93e-10 -90.00
           6.460e-6 -90.00 2.735e-8 -90.00 7.193e-9 -90.00 3.305e-5 90.000
           7.136e-9 -90.00 1.753e-9 -90.00 2.90e-10 -90.00 6.403e-6 -90.00
           4.60e-10 -90.00 5.81e-11 -90.00
           2.138e-8 -90.00 6.465e-6 -90.00 1.751e-9 -90.00 7.136e-9 -90.00
           3.366e-5 90.000 7.179e-9 -90.00 5.79e-11 -90.00 2.91e-10 -90.00
           6.412e-6 -90.00 4.68e-10 -90.00
           2.716e-8 -90.00 6.453e-6 -90.00 7.209e-9 -90.00 1.753e-9 -90.00
           7.179e-9 -90.00 3.302e-5 90.000 4.62e-10 -90.00 5.81e-11 -90.00
           2.90e-10 -90.00 6.404e-6 -90.00
           4.604e-7 -90.00 6.70e-10 -90.00 6.408e-6 -90.00 2.90e-10 -90.00
           5.79e-11 -90.00 4.62e-10 -90.00 2.061e-5 90.000 4.13e-11 -90.00
           1.96e-12 -89.95 4.15e-11 -90.00
           4.669e-7 -90.00 6.65e-10 -90.00 4.66e-10 -90.00 6.403e-6 -90.00
           2.91e-10 -90.00 5.81e-11 -90.00 4.13e-11 -90.00 2.066e-5 90.000
           4.13e-11 -90.00 1.94e-12 -90.04
           6.63e-10 -90.00 4.202e-7 -90.00 5.76e-11 -90.00 4.60e-10 -90.00
           6.412e-6 -90.00 2.90e-10 -90.00 1.96e-12 -89.95 4.13e-11 -90.00
           2.066e-5 90.000 4.14e-11 -90.00
           6.63e-10 -90.00 4.201e-7 -90.00 2.93e-10 -90.00 5.81e-11 -90.00
           4.68e-10 -90.00 6.404e-6 -90.00 4.15e-11 -90.00 1.94e-12 -90.04
           4.14e-11 -90.00 2.065e-5 90.000
0.05500000 5.183e-5 90.000 4.819e-7 -90.00 7.118e-6 -90.00 7.106e-6 -90.00
           2.351e-8 -90.00 2.987e-8 -90.00 5.064e-7 -90.00 5.136e-7 -90.00
           7.31e-10 -90.00 7.30e-10 -90.00
           4.819e-7 -90.00 5.142e-5 90.000 2.414e-8 -90.00 3.008e-8 -90.00
           7.112e-6 -90.00 7.098e-6 -90.00 7.38e-10 -90.00 7.33e-10 -90.00
           4.623e-7 -90.00 4.621e-7 -90.00
           7.118e-6 -90.00 2.414e-8 -90.00 3.705e-5 90.000 7.912e-9 -90.00
           1.926e-9 -90.00 7.929e-9 -90.00 7.049e-6 -90.00 5.13e-10 -90.00
           6.36e-11 -90.00 3.23e-10 -90.00
           7.106e-6 -90.00 3.008e-8 -90.00 7.912e-9 -90.00 3.636e-5 90.000
           7.849e-9 -90.00 1.928e-9 -90.00 3.20e-10 -90.00 7.043e-6 -90.00
           5.06e-10 -90.00 6.41e-11 -90.00
           2.351e-8 -90.00 7.112e-6 -90.00 1.926e-9 -90.00 7.849e-9 -90.00
           3.702e-5 90.000 7.896e-9 -90.00 6.38e-11 -90.00 3.21e-10 -90.00
           7.053e-6 -90.00 5.15e-10 -90.00
           2.987e-8 -90.00 7.098e-6 -90.00 7.929e-9 -90.00 1.928e-9 -90.00
           7.896e-9 -90.00 3.633e-5 90.000 5.09e-10 -90.00 6.41e-11 -90.00
           3.19e-10 -90.00 7.045e-6 -90.00
           5.064e-7 -90.00 7.38e-10 -90.00 7.049e-6 -90.00 3.20e-10 -90.00
           6.38e-11 -90.00 5.09e-10 -90.00 2.267e-5 90.000 4.53e-11 -90.00
           2.05e-12 -89.95 4.55e-11 -90.00
           5.136e-7 -90.00 7.33e-10 -90.00 5.13e-10 -90.00 7.043e-6 -90.00
           3.21e-10 -90.00 6.41e-11 -90.00 4.53e-11 -90.00 2.273e-5 90.000
           4.53e-11 -90.00 2.01e-12 -90.04
           7.31e-10 -90.00 4.623e-7 -90.00 6.36e-11 -90.00 5.06e-10 -90.00
           7.053e-6 -90.00 3.19e-10 -90.00 2.05e-12 -89.95 4.53e-11 -90.00
           2.272e-5 90.000 4.54e-11 -90.00
           7.30e-10 -90.00 4.621e-7 -90.00 3.23e-10 -90.00 6.41e-11 -90.00
           5.15e-10 -90.00 7.045e-6 -90.00 4.55e-11 -90.00 2.01e-12 -90.04
           4.54e-11 -90.00 2.272e-5 90.000
0.06000000 5.655e-5 90.000 5.257e-7 -90.00 7.766e-6 -90.00 7.752e-6 -90.00
           2.564e-8 -90.00 3.258e-8 -90.00 5.525e-7 -90.00 5.603e-7 -90.00
           7.99e-10 -90.00 7.98e-10 -90.00
           5.257e-7 -90.00 5.610e-5 90.000 2.633e-8 -90.00 3.282e-8 -90.00
           7.758e-6 -90.00 7.744e-6 -90.00 8.07e-10 -90.00 8.01e-10 -90.00
           5.043e-7 -90.00 5.041e-7 -90.00
           7.766e-6 -90.00 2.633e-8 -90.00 4.041e-5 90.000 8.630e-9 -90.00
           2.101e-9 -90.00 8.648e-9 -90.00 7.690e-6 -90.00 5.60e-10 -90.00
           6.96e-11 -90.00 3.53e-10 -90.00
           7.752e-6 -90.00 3.282e-8 -90.00 8.630e-9 -90.00 3.966e-5 90.000
           8.561e-9 -90.00 2.103e-9 -90.00 3.49e-10 -90.00 7.683e-6 -90.00
           5.53e-10 -90.00 7.00e-11 -90.00
           2.564e-8 -90.00 7.758e-6 -90.00 2.101e-9 -90.00 8.561e-9 -90.00
           4.039e-5 90.000 8.612e-9 -90.00 6.98e-11 -90.00 3.50e-10 -90.00
           7.694e-6 -90.00 5.62e-10 -90.00
           3.258e-8 -90.00 7.744e-6 -90.00 8.648e-9 -90.00 2.103e-9 -90.00
           8.612e-9 -90.00 3.963e-5 90.000 5.55e-10 -90.00 7.01e-11 -90.00
           3.48e-10 -90.00 7.685e-6 -90.00
           5.525e-7 -90.00 8.07e-10 -90.00 7.690e-6 -90.00 3.49e-10 -90.00
           6.98e-11 -90.00 5.55e-10 -90.00 2.473e-5 90.000 4.92e-11 -90.00
           2.11e-12 -89.95 4.95e-11 -90.00
           5.603e-7 -90.00 8.01e-10 -90.00 5.60e-10 -90.00 7.683e-6 -90.00
           3.50e-10 -90.00 7.01e-11 -90.00 4.92e-11 -90.00 2.479e-5 90.000
           4.93e-11 -90.00 2.06e-12 -90.04
           7.99e-10 -90.00 5.043e-7 -90.00 6.96e-11 -90.00 5.53e-10 -90.00
           7.694e-6 -90.00 3.48e-10 -90.00 2.11e-12 -89.95 4.93e-11 -90.00
           2.479e-5 90.000 4.94e-11 -90.00
           7.98e-10 -90.00 5.041e-7 -90.00 3.53e-10 -90.00 7.00e-11 -90.00
           5.62e-10 -90.00 7.685e-6 -90.00 4.95e-11 -90.00 2.06e-12 -90.04
           4.94e-11 -90.00 2.479e-5 90.000
0.06500000 6.126e-5 90.000 5.695e-7 -90.00 8.413e-6 -90.00 8.398e-6 -90.00
           2.777e-8 -90.00 3.529e-8 -90.00 5.985e-7 -90.00 6.070e-7 -90.00
           8.67e-10 -90.00 8.66e-10 -90.00
           5.695e-7 -90.00 6.077e-5 90.000 2.852e-8 -90.00 3.554e-8 -90.00
           8.405e-6 -90.00 8.389e-6 -90.00 8.75e-10 -90.00 8.69e-10 -90.00
           5.463e-7 -90.00 5.461e-7 -90.00
           8.413e-6 -90.00 2.852e-8 -90.00 4.378e-5 90.000 9.348e-9 -90.00
           2.276e-9 -90.00 9.368e-9 -90.00 8.331e-6 -90.00 6.07e-10 -90.00
           7.57e-11 -90.00 3.82e-10 -90.00
           8.398e-6 -90.00 3.554e-8 -90.00 9.348e-9 -90.00 4.297e-5 90.000
           9.273e-9 -90.00 2.279e-9 -90.00 3.79e-10 -90.00 8.324e-6 -90.00
           5.99e-10 -90.00 7.61e-11 -90.00
           2.777e-8 -90.00 8.405e-6 -90.00 2.276e-9 -90.00 9.273e-9 -90.00
           4.375e-5 90.000 9.329e-9 -90.00 7.58e-11 -90.00 3.80e-10 -90.00
           8.335e-6 -90.00 6.10e-10 -90.00
           3.529e-8 -90.00 8.389e-6 -90.00 9.368e-9 -90.00 2.279e-9 -90.00
           9.329e-9 -90.00 4.293e-5 90.000 6.02e-10 -90.00 7.61e-11 -90.00
           3.78e-10 -90.00 8.325e-6 -90.00
           5.985e-7 -90.00 8.75e-10 -90.00 8.331e-6 -90.00 3.79e-10 -90.00
           7.58e-11 -90.00 6.02e-10 -90.00 2.679e-5 90.000 5.32e-11 -90.00
           2.15e-12 -89.95 5.35e-11 -90.00
           6.070e-7 -90.00 8.69e-10 -90.00 6.07e-10 -90.00 8.324e-6 -90.00
           3.80e-10 -90.00 7.61e-11 -90.00 5.32e-11 -90.00 2.686e-5 90.000
           5.32e-11 -90.00 2.09e-12 -90.04
           8.67e-10 -90.00 5.463e-7 -90.00 7.57e-11 -90.00 5.99e-10 -90.00
           8.335e-6 -90.00 3.78e-10 -90.00 2.15e-12 -89.95 5.32e-11 -90.00
           2.685e-5 90.000 5.34e-11 -90.00
           8.66e-10 -90.00 5.461e-7 -90.00 3.82e-10 -90.00 7.61e-11 -90.00
           6.10e-10 -90.00 8.325e-6 -90.00 5.35e-11 -90.00 2.09e-12 -90.04
           5.34e-11 -90.00 2.685e-5 90.000
0.07000000 6.597e-5 90.000 6.133e-7 -90.00 9.060e-6 -90.00 9.043e-6 -90.00
           2.990e-8 -90.00 3.800e-8 -90.00 6.446e-7 -90.00 6.537e-7 -90.00
           9.35e-10 -90.00 9.35e-10 -90.00
           6.133e-7 -90.00 6.545e-5 90.000 3.071e-8 -90.00 3.827e-8 -90.00
           9.051e-6 -90.00 9.034e-6 -90.00 9.45e-10 -90.00 9.38e-10 -90.00
           5.883e-7 -90.00 5.881e-7 -90.00
           9.060e-6 -90.00 3.071e-8 -90.00 4.715e-5 90.000 1.007e-8 -90.00
           2.451e-9 -90.00 1.009e-8 -90.00 8.971e-6 -90.00 6.54e-10 -90.00
           8.18e-11 -90.00 4.12e-10 -90.00
           9.043e-6 -90.00 3.827e-8 -90.00 1.007e-8 -90.00 4.627e-5 90.000
           9.985e-9 -90.00 2.454e-9 -90.00 4.09e-10 -90.00 8.964e-6 -90.00
           6.46e-10 -90.00 8.21e-11 -90.00
           2.990e-8 -90.00 9.051e-6 -90.00 2.451e-9 -90.00 9.985e-9 -90.00
           4.712e-5 90.000 1.004e-8 -90.00 8.19e-11 -90.00 4.10e-10 -90.00
           8.976e-6 -90.00 6.57e-10 -90.00
           3.800e-8 -90.00 9.034e-6 -90.00 1.009e-8 -90.00 2.454e-9 -90.00
           1.004e-8 -90.00 4.623e-5 90.000 6.49e-10 -90.00 8.22e-11 -90.00
           4.07e-10 -90.00 8.966e-6 -90.00
           6.446e-7 -90.00 9.45e-10 -90.00 8.971e-6 -90.00 4.09e-10 -90.00
           8.19e-11 -90.00 6.49e-10 -90.00 2.885e-5 90.000 5.70e-11 -90.00
           2.16e-12 -89.95 5.74e-11 -90.00
           6.537e-7 -90.00 9.38e-10 -90.00 6.54e-10 -90.00 8.964e-6 -90.00
           4.10e-10 -90.00 8.22e-11 -90.00 5.70e-11 -90.00 2.893e-5 90.000
           5.71e-11 -90.00 2.08e-12 -90.04
           9.35e-10 -90.00 5.883e-7 -90.00 8.18e-11 -90.00 6.46e-10 -90.00
           8.976e-6 -90.00 4.07e-10 -90.00 2.16e-12 -89.95 5.71e-11 -90.00
           2.892e-5 90.000 5.73e-11 -90.00
           9.35e-10 -90.00 5.881e-7 -90.00 4.12e-10 -90.00 8.21e-11 -90.00
           6.57e-10 -90.00 8.966e-6 -90.00 5.74e-11 -90.00 2.08e-12 -90.04
           5.73e-11 -90.00 2.892e-5 90.000
0.07500000 7.068e-5 90.000 6.571e-7 -90.00 9.707e-6 -90.00 9.689e-6 -90.00
           3.203e-8 -90.00 4.070e-8 -90.00 6.906e-7 -90.00 7.004e-7 -90.00