! Sonnet Data File
! From: em Version : 14.52
! From Project: Xmon_Cc
! Data is De-embedded 
! Data File Written: 06/16/2017 12:06:11
!< HDATE 06/16/2017 11:36:16
!< MDATE 06/16/2017 11:36:16
# GHZ Y MA R 1.0
1.00000000 4.965e-4 90.000 1.022e-5 -90.00 1.022e-5 -90.00 3.874e-4 90.000
!< P1 F=1.0 Eeff=(5.83410194 -5.8701e-6) Z0=(165.953024 -8.3945e-5) R=2.46417e-4 C=0.0040973 
!< P2 F=1.0 Eeff=(5.67274125 -5.676e-6) Z0=(62.3103315 -3.1144e-5) R=0.0 C=0.00587439 
1.00100000 4.970e-4 90.000 1.023e-5 -90.00 1.023e-5 -90.00 3.878e-4 90.000
1.00200000 4.975e-4 90.000 1.024e-5 -90.00 1.024e-5 -90.00 3.882e-4 90.000
1.00300000 4.980e-4 90.000 1.025e-5 -90.00 1.025e-5 -90.00 3.886e-4 90.000
1.00400000 4.985e-4 90.000 1.026e-5 -90.00 1.026e-5 -90.00 3.890e-4 90.000
1.00500000 4.990e-4 90.000 1.027e-5 -90.00 1.027e-5 -90.00 3.894e-4 90.000
1.00600000 4.995e-4 90.000 1.028e-5 -90.00 1.028e-5 -90.00 3.898e-4 90.000
1.00700000 5.000e-4 90.000 1.029e-5 -90.00 1.029e-5 -90.00 3.901e-4 90.000
1.00800000 5.005e-4 90.000 1.030e-5 -90.00 1.030e-5 -90.00 3.905e-4 90.000
1.00900000 5.010e-4 90.000 1.031e-5 -90.00 1.031e-5 -90.00 3.909e-4 90.000
1.01000000 5.015e-4 90.000 1.032e-5 -90.00 1.032e-5 -90.00 3.913e-4 90.000
1.01100000 5.020e-4 90.000 1.033e-5 -90.00 1.033e-5 -90.00 3.917e-4 90.000
1.01200000 5.025e-4 90.000 1.035e-5 -90.00 1.035e-5 -90.00 3.921e-4 90.000
1.01300000 5.030e-4 90.000 1.036e-5 -90.00 1.036e-5 -90.00 3.925e-4 90.000
1.01400000 5.035e-4 90.000 1.037e-5 -90.00 1.037e-5 -90.00 3.929e-4 90.000
1.01500000 5.040e-4 90.000 1.038e-5 -90.00 1.038e-5 -90.00 3.932e-4 90.000
1.01600000 5.045e-4 90.000 1.039e-5 -90.00 1.039e-5 -90.00 3.936e-4 90.000
1.01700000 5.050e-4 90.000 1.040e-5 -90.00 1.040e-5 -90.00 3.940e-4 90.000
1.01800000 5.055e-4 90.000 1.041e-5 -90.00 1.041e-5 -90.00 3.944e-4 90.000
1.01900000 5.060e-4 90.000 1.042e-5 -90.00 1.042e-5 -90.00 3.948e-4 90.000
1.02000000 5.064e-4 90.000 1.043e-5 -90.00 1.043e-5 -90.00 3.952e-4 90.000
1.02100000 5.069e-4 90.000 1.044e-5 -90.00 1.044e-5 -90.00 3.956e-4 90.000
1.02200000 5.074e-4 90.000 1.045e-5 -90.00 1.045e-5 -90.00 3.960e-4 90.000
1.02300000 5.079e-4 90.000 1.046e-5 -90.00 1.046e-5 -90.00 3.963e-4 90.000
1.02400000 5.084e-4 90.000 1.047e-5 -90.00 1.047e-5 -90.00 3.967e-4 90.000
1.02500000 5.089e-4 90.000 1.048e-5 -90.00 1.048e-5 -90.00 3.971e-4 90.000
1.02600000 5.094e-4 90.000 1.049e-5 -90.00 1.049e-5 -90.00 3.975e-4 90.000
1.02700000 5.099e-4 90.000 1.050e-5 -90.00 1.050e-5 -90.00 3.979e-4 90.000
1.02800000 5.104e-4 90.000 1.051e-5 -90.00 1.051e-5 -90.00 3.983e-4 90.000
1.02900000 5.109e-4 90.000 1.052e-5 -90.00 1.052e-5 -90.00 3.987e-4 90.000
1.03000000 5.114e-4 90.000 1.053e-5 -90.00 1.053e-5 -90.00 3.991e-4 90.000
1.03100000 5.119e-4 90.000 1.054e-5 -90.00 1.054e-5 -90.00 3.994e-4 90.000
1.03200000 5.124e-4 90.000 1.055e-5 -90.00 1.055e-5 -90.00 3.998e-4 90.000
1.03300000 5.129e-4 90.000 1.056e-5 -90.00 1.056e-5 -90.00 4.002e-4 90.000
1.03400000 5.134e-4 90.000 1.057e-5 -90.00 1.057e-5 -90.00 4.006e-4 90.000
1.03500000 5.139e-4 90.000 1.058e-5 -90.00 1.058e-5 -90.00 4.010e-4 90.000
1.03600000 5.144e-4 90.000 1.059e-5 -90.00 1.059e-5 -90.00 4.014e-4 90.000
1.03700000 5.149e-4 90.000 1.060e-5 -90.00 1.060e-5 -90.00 4.018e-4 90.000
1.03800000 5.154e-4 90.000 1.061e-5 -90.00 1.061e-5 -90.00 4.022e-4 90.000
1.03900000 5.159e-4 90.000 1.062e-5 -90.00 1.062e-5 -90.00 4.025e-4 90.000
1.04000000 5.164e-4 90.000 1.063e-5 -90.00 1.063e-5 -90.00 4.029e-4 90.000
1.04100000 5.169e-4 90.000 1.064e-5 -90.00 1.064e-5 -90.00 4.033e-4 90.000
1.04200000 5.174e-4 90.000 1.065e-5 -90.00 1.065e-5 -90.00 4.037e-4 90.000
1.04300000 5.179e-4 90.000 1.066e-5 -90.00 1.066e-5 -90.00 4.041e-4 90.000
1.04400000 5.184e-4 90.000 1.067e-5 -90.00 1.067e-5 -90.00 4.045e-4 90.000
1.04500000 5.189e-4 90.000 1.068e-5 -90.00 1.068e-5 -90.00 4.049e-4 90.000
1.04600000 5.194e-4 90.000 1.069e-5 -90.00 1.069e-5 -90.00 4.053e-4 90.000
1.04700000 5.199e-4 90.000 1.070e-5 -90.00 1.070e-5 -90.00 4.056e-4 90.000
1.04800000 5.204e-4 90.000 1.071e-5 -90.00 1.071e-5 -90.00 4.060e-4 90.000
1.04900000 5.209e-4 90.000 1.072e-5 -90.00 1.072e-5 -90.00 4.064e-4 90.000
1.05000000 5.214e-4 90.000 1.073e-5 -90.00 1.073e-5 -90.00 4.068e-4 90.000
1.05100000 5.219e-4 90.000 1.074e-5 -90.00 1.074e-5 -90.00 4.072e-4 90.000
1.05200000 5.224e-4 90.000 1.075e-5 -90.00 1.075e-5 -90.00 4.076e-4 90.000
1.05300000 5.228e-4 90.000 1.077e-5 -90.00 1.077e-5 -90.00 4.080e-4 90.000
1.05400000 5.233e-4 90.000 1.078e-5 -90.00 1.078e-5 -90.00 4.084e-4 90.000
1.05500000 5.238e-4 90.000 1.079e-5 -90.00 1.079e-5 -90.00 4.087e-4 90.000
1.05600000 5.243e-4 90.000 1.080e-5 -90.00 1.080e-5 -90.00 4.091e-4 90.000
1.05700000 5.248e-4 90.000 1.081e-5 -90.00 1.081e-5 -90.00 4.095e-4 90.000
1.05800000 5.253e-4 90.000 1.082e-5 -90.00 1.082e-5 -90.00 4.099e-4 90.000
1.05900000 5.258e-4 90.000 1.083e-5 -90.00 1.083e-5 -90.00 4.103e-4 90.000
1.06000000 5.263e-4 90.000 1.084e-5 -90.00 1.084e-5 -90.00 4.107e-4 90.000
1.06100000 5.268e-4 90.000 1.085e-5 -90.00 1.085e-5 -90.00 4.111e-4 90.000
1.06200000 5.273e-4 90.000 1.086e-5 -90.00 1.086e-5 -90.00 4.115e-4 90.000
1.06300000 5.278e-4 90.000 1.087e-5 -90.00 1.087e-5 -90.00 4.118e-4 90.000
1.06400000 5.283e-4 90.000 1.088e-5 -90.00 1.088e-5 -90.00 4.122e-4 90.000
1.06500000 5.288e-4 90.000 1.089e-5 -90.00 1.089e-5 -90.00 4.126e-4 90.000
1.06600000 5.293e-4 90.000 1.090e-5 -90.00 1.090e-5 -90.00 4.130e-4 90.000
1.06700000 5.298e-4 90.000 1.091e-5 -90.00 1.091e-5 -90.00 4.134e-4 90.000
1.06800000 5.303e-4 90.000 1.092e-5 -90.00 1.092e-5 -90.00 4.138e-4 90.000
1.06900000 5.308e-4 90.000 1.093e-5 -90.00 1.093e-5 -90.00 4.142e-4 90.000
1.07000000 5.313e-4 90.000 1.094e-5 -90.00 1.094e-5 -90.00 4.146e-4 90.000
1.07100000 5.318e-4 90.000 1.095e-5 -90.00 1.095e-5 -90.00 4.149e-4 90.000
1.07200000 5.323e-4 90.000 1.096e-5 -90.00 1.096e-5 -90.00 4.153e-4 90.000
1.07300000 5.328e-4 90.000 1.097e-5 -90.00 1.097e-5 -90.00 4.157e-4 90.000
1.07400000 5.333e-4 90.000 1.098e-5 -90.00 1.098e-5 -90.00 4.161e-4 90.000
1.07500000 5.338e-4 90.000 1.099e-5 -90.00 1.099e-5 -90.00 4.165e-4 90.000
1.07600000 5.343e-4 90.000 1.100e-5 -90.00 1.100e-5 -90.00 4.169e-4 90.000
1.07700000 5.348e-4 90.000 1.101e-5 -90.00 1.101e-5 -90.00 4.173e-4 90.000
1.07800000 5.353e-4 90.000 1.102e-5 -90.00 1.102e-5 -90.00 4.177e-4 90.000
1.07900000 5.358e-4 90.000 1.103e-5 -90.00 1.103e-5 -90.00 4.180e-4 90.000
1.08000000 5.363e-4 90.000 1.104e-5 -90.00 1.104e-5 -90.00 4.184e-4 90.000
1.08100000 5.368e-4 90.000 1.105e-5 -90.00 1.105e-5 -90.00 4.188e-4 90.000
1.08200000 5.373e-4 90.000 1.106e-5 -90.00 1.106e-5 -90.00 4.192e-4 90.000
1.08300000 5.378e-4 90.000 1.107e-5 -90.00 1.107e-5 -90.00 4.196e-4 90.000
1.08400000 5.383e-4 90.000 1.108e-5 -90.00 1.108e-5 -90.00 4.200e-4 90.000
1.08500000 5.388e-4 90.000 1.109e-5 -90.00 1.109e-5 -90.00 4.204e-4 90.000
1.08600000 5.392e-4 90.000 1.110e-5 -90.00 1.110e-5 -90.00 4.208e-4 90.000
1.08700000 5.397e-4 90.000 1.111e-5 -90.00 1.111e-5 -90.00 4.211e-4 90.000
1.08800000 5.402e-4 90.000 1.112e-5 -90.00 1.112e-5 -90.00 4.215e-4 90.000
1.08900000 5.407e-4 90.000 1.113e-5 -90.00 1.113e-5 -90.00 4.219e-4 90.000
1.09000000 5.412e-4 90.000 1.114e-5 -90.00 1.114e-5 -90.00 4.223e-4 90.000
1.09100000 5.417e-4 90.000 1.115e-5 -90.00 1.115e-5 -90.00 4.227e-4 90.000
1.09200000 5.422e-4 90.000 1.116e-5 -90.00 1.116e-5 -90.00 4.231e-4 90.000
1.09300000 5.427e-4 90.000 1.117e-5 -90.00 1.117e-5 -90.00 4.235e-4 90.000
1.09400000 5.432e-4 90.000 1.119e-5 -90.00 1.119e-5 -90.00 4.239e-4 90.000
1.09500000 5.437e-4 90.000 1.120e-5 -90.00 1.120e-5 -90.00 4.242e-4 90.000
1.09600000 5.442e-4 90.000 1.121e-5 -90.00 1.121e-5 -90.00 4.246e-4 90.000
1.09700000 5.447e-4 90.000 1.122e-5 -90.00 1.122e-5 -90.00 4.250e-4 90.000
1.09800000 5.452e-4 90.000 1.123e-5 -90.00 1.123e-5 -90.00 4.254e-4 90.000
1.09900000 5.457e-4 90.000 1.124e-5 -90.00 1.124e-5 -90.00 4.258e-4 90.000
1.10000000 5.462e-4 90.000 1.125e-5 -90.00 1.125e-5 -90.00 4.262e-4 90.000
1.10100000 5.467e-4 90.000 1.126e-5 -90.00 1.126e-5 -90.00 4.266e-4 90.000
1.10200000 5.472e-4 90.000 1.127e-5 -90.00 1.127e-5 -90.00 4.270e-4 90.000
1.10300000 5.477e-4 90.000 1.128e-5 -90.00 1.128e-5 -90.00 4.273e-4 90.000
1.10400000 5.482e-4 90.000 1.129e-5 -90.00 1.129e-5 -90.00 4.277e-4 90.000
1.10500000 5.487e-4 90.000 1.130e-5 -90.00 1.130e-5 -90.00 4.281e-4 90.000
1.10600000 5.492e-4 90.000 1.131e-5 -90.00 1.131e-5 -90.00 4.285e-4 90.000
1.10700000 5.497e-4 90.000 1.132e-5 -90.00 1.132e-5 -90.00 4.289e-4 90.000
1.10800000 5.502e-4 90.000 1.133e-5 -90.00 1.133e-5 -90.00 4.293e-4 90.000
1.10900000 5.507e-4 90.000 1.134e-5 -90.00 1.134e-5 -90.00 4.297e-4 90.000
1.11000000 5.512e-4 90.000 1.135e-5 -90.00 1.135e-5 -90.00 4.301e-4 90.000
1.11100000 5.517e-4 90.000 1.136e-5 -90.00 1.136e-5 -90.00 4.304e-4 90.000
1.11200000 5.522e-4 90.000 1.137e-5 -90.00 1.137e-5 -90.00 4.308e-4 90.000
1.11300000 5.527e-4 90.000 1.138e-5 -90.00 1.138e-5 -90.00 4.312e-4 90.000
1.11400000 5.532e-4 90.000 1.139e-5 -90.00 1.139e-5 -90.00 4.316e-4 90.000
1.11500000 5.537e-4 90.000 1.140e-5 -90.00 1.140e-5 -90.00 4.320e-4 90.000
1.11600000 5.542e-4 90.000 1.141e-5 -90.00 1.141e-5 -90.00 4.324e-4 90.000
1.11700000 5.547e-4 90.000 1.142e-5 -90.00 1.142e-5 -90.00 4.328e-4 90.000
1.11800000 5.552e-4 90.000 1.143e-5 -90.00 1.143e-5 -90.00 4.332e-4 90.000
1.11900000 5.557e-4 90.000 1.144e-5 -90.00 1.144e-5 -90.00 4.336e-4 90.000
1.12000000 5.561e-4 90.000 1.145e-5 -90.00 1.145e-5 -90.00 4.339e-4 90.000
1.12100000 5.566e-4 90.000 1.146e-5 -90.00 1.146e-5 -90.00 4.343e-4 90.000
1.12200000 5.571e-4 90.000 1.147e-5 -90.00 1.147e-5 -90.00 4.347e-4 90.000
1.12300000 5.576e-4 90.000 1.148e-5 -90.00 1.148e-5 -90.00 4.351e-4 90.000
1.12400000 5.581e-4 90.000 1.149e-5 -90.00 1.149e-5 -90.00 4.355e-4 90.000
1.12500000 5.586e-4 90.000 1.150e-5 -90.00 1.150e-5 -90.00 4.359e-4 90.000
1.12600000 5.591e-4 90.000 1.151e-5 -90.00 1.151e-5 -90.00 4.363e-4 90.000
1.12700000 5.596e-4 90.000 1.152e-5 -90.00 1.152e-5 -90.00 4.367e-4 90.000
1.12800000 5.601e-4 90.000 1.153e-5 -90.00 1.153e-5 -90.00 4.370e-4 90.000
1.12900000 5.606e-4 90.000 1.154e-5 -90.00 1.154e-5 -90.00 4.374e-4 90.000
1.13000000 5.611e-4 90.000 1.155e-5 -90.00 1.155e-5 -90.00 4.378e-4 90.000
1.13100000 5.616e-4 90.000 1.156e-5 -90.00 1.156e-5 -90.00 4.382e-4 90.000
1.13200000 5.621e-4 90.000 1.157e-5 -90.00 1.157e-5 -90.00 4.386e-4 90.000
1.13300000 5.626e-4 90.000 1.158e-5 -90.00 1.158e-5 -90.00 4.390e-4 90.000
1.13400000 5.631e-4 90.000 1.159e-5 -90.00 1.159e-5 -90.00 4.394e-4 90.000
1.13500000 5.636e-4 90.000 1.161e-5 -90.00 1.161e-5 -90.00 4.398e-4 90.000
1.13600000 5.641e-4 90.000 1.162e-5 -90.00 1.162e-5 -90.00 4.401e-4 90.000
1.13700000 5.646e-4 90.000 1.163e-5 -90.00 1.163e-5 -90.00 4.405e-4 90.000
1.13800000 5.651e-4 90.000 1.164e-5 -90.00 1.164e-5 -90.00 4.409e-4 90.000
1.13900000 5.656e-4 90.000 1.165e-5 -90.00 1.165e-5 -90.00 4.413e-4 90.000
1.14000000 5.661e-4 90.000 1.166e-5 -90.00 1.166e-5 -90.00 4.417e-4 90.000
1.14100000 5.666e-4 90.000 1.167e-5 -90.00 1.167e-5 -90.00 4.421e-4 90.000
1.14200000 5.671e-4 90.000 1.168e-5 -90.00 1.168e-5 -90.00 4.425e-4 90.000
1.14300000 5.676e-4 90.000 1.169e-5 -90.00 1.169e-5 -90.00 4.429e-4 90.000
1.14400000 5.681e-4 90.000 1.170e-5 -90.00 1.170e-5 -90.00 4.432e-4 90.000
1.14500000 5.686e-4 90.000 1.171e-5 -90.00 1.171e-5 -90.00 4.436e-4 90.000
1.14600000 5.691e-4 90.000 1.172e-5 -90.00 1.172e-5 -90.00 4.440e-4 90.000
1.14700000 5.696e-4 90.000 1.173e-5 -90.00 1.173e-5 -90.00 4.444e-4 90.000
1.14800000 5.701e-4 90.000 1.174e-5 -90.00 1.174e-5 -90.00 4.448e-4 90.000
1.14900000 5.706e-4 90.000 1.175e-5 -90.00 1.175e-5 -90.00 4.452e-4 90.000
1.15000000 5.711e-4 90.000 1.176e-5 -90.00 1.176e-5 -90.00 4.456e-4 90.000
1.15100000 5.716e-4 90.000 1.177e-5 -90.00 1.177e-5 -90.00 4.460e-4 90.000
1.15200000 5.721e-4 90.000 1.178e-5 -90.00 1.178e-5 -90.00 4.463e-4 90.000
1.15300000 5.726e-4 90.000 1.179e-5 -90.00 1.179e-5 -90.00 4.467e-4 90.000
1.15400000 5.730e-4 90.000 1.180e-5 -90.00 1.180e-5 -90.00 4.471e-4 90.000
1.15500000 5.735e-4 90.000 1.181e-5 -90.00 1.181e-5 -90.00 4.475e-4 90.000
1.15600000 5.740e-4 90.000 1.182e-5 -90.00 1.182e-5 -90.00 4.479e-4 90.000
1.15700000 5.745e-4 90.000 1.183e-5 -90.00 1.183e-5 -90.00 4.483e-4 90.000
1.15800000 5.750e-4 90.000 1.184e-5 -90.00 1.184e-5 -90.00 4.487e-4 90.000
1.15900000 5.755e-4 90.000 1.185e-5 -90.00 1.185e-5 -90.00 4.491e-4 90.000
1.16000000 5.760e-4 90.000 1.186e-5 -90.00 1.186e-5 -90.00 4.494e-4 90.000
1.16100000 5.765e-4 90.000 1.187e-5 -90.00 1.187e-5 -90.00 4.498e-4 90.000
1.16200000 5.770e-4 90.000 1.188e-5 -90.00 1.188e-5 -90.00 4.502e-4 90.000
1.16300000 5.775e-4 90.000 1.189e-5 -90.00 1.189e-5 -90.00 4.506e-4 90.000
1.16400000 5.780e-4 90.000 1.190e-5 -90.00 1.190e-5 -90.00 4.510e-4 90.000
1.16500000 5.785e-4 90.000 1.191e-5 -90.00 1.191e-5 -90.00 4.514e-4 90.000
1.16600000 5.790e-4 90.000 1.192e-5 -90.00 1.192e-5 -90.00 4.518e-4 90.000
1.16700000 5.795e-4 90.000 1.193e-5 -90.00 1.193e-5 -90.00 4.522e-4 90.000
1.16800000 5.800e-4 90.000 1.194e-5 -90.00 1.194e-5 -90.00 4.525e-4 90.000
1.16900000 5.805e-4 90.000 1.195e-5 -90.00 1.195e-5 -90.00 4.529e-4 90.000
1.17000000 5.810e-4 90.000 1.196e-5 -90.00 1.196e-5 -90.00 4.533e-4 90.000
1.17100000 5.815e-4 90.000 1.197e-5 -90.00 1.197e-5 -90.00 4.537e-4 90.000
1.17200000 5.820e-4 90.000 1.198e-5 -90.00 1.198e-5 -90.00 4.541e-4 90.000
1.17300000 5.825e-4 90.000 1.199e-5 -90.00 1.199e-5 -90.00 4.545e-4 90.000
1.17400000 5.830e-4 90.000 1.200e-5 -90.00 1.200e-5 -90.00 4.549e-4 90.000
1.17500000 5.835e-4 90.000 1.201e-5 -90.00 1.201e-5 -90.00 4.553e-4 90.000
1.17600000 5.840e-4 90.000 1.203e-5 -90.00 1.203e-5 -90.00 4.556e-4 90.000
1.17700000 5.845e-4 90.000 1.204e-5 -90.00 1.204e-5 -90.00 4.560e-4 90.000
1.17800000 5.850e-4 90.000 1.205e-5 -90.00 1.205e-5 -90.00 4.564e-4 90.000
1.17900000 5.855e-4 90.000 1.206e-5 -90.00 1.206e-5 -90.00 4.568e-4 90.000
1.18000000 5.860e-4 90.000 1.207e-5 -90.00 1.207e-5 -90.00 4.572e-4 90.000
1.18100000 5.865e-4 90.000 1.208e-5 -90.00 1.208e-5 -90.00 4.576e-4 90.000
1.18200000 5.870e-4 90.000 1.209e-5 -90.00 1.209e-5 -90.00 4.580e-4 90.000
1.18300000 5.875e-4 90.000 1.210e-5 -90.00 1.210e-5 -90.00 4.584e-4 90.000
1.18400000 5.880e-4 90.000 1.211e-5 -90.00 1.211e-5 -90.00 4.587e-4 90.000
1.18500000 5.885e-4 90.000 1.212e-5 -90.00 1.212e-5 -90.00 4.591e-4 90.000
1.18600000 5.890e-4 90.000 1.213e-5 -90.00 1.213e-5 -90.00 4.595e-4 90.000
1.18700000 5.895e-4 90.000 1.214e-5 -90.00 1.214e-5 -90.00 4.599e-4 90.000
1.18800000 5.900e-4 90.000 1.215e-5 -90.00 1.215e-5 -90.00 4.603e-4 90.000
1.18900000 5.904e-4 90.000 1.216e-5 -90.00 1.216e-5 -90.00 4.607e-4 90.000
1.19000000 5.909e-4 90.000 1.217e-5 -90.00 1.217e-5 -90.00 4.611e-4 90.000
1.19100000 5.914e-4 90.000 1.218e-5 -90.00 1.218e-5 -90.00 4.615e-4 90.000
1.19200000 5.919e-4 90.000 1.219e-5 -90.00 1.219e-5 -90.00 4.618e-4 90.000
1.19300000 5.924e-4 90.000 1.220e-5 -90.00 1.220e-5 -90.00 4.622e-4 90.000
1.19400000 5.929e-4 90.000 1.221e-5 -90.00 1.221e-5 -90.00 4.626e-4 90.000
1.19500000 5.934e-4 90.000 1.222e-5 -90.00 1.222e-5 -90.00 4.630e-4 90.000
1.19600000 5.939e-4 90.000 1.223e-5 -90.00 1.223e-5 -90.00 4.634e-4 90.000
1.19700000 5.944e-4 90.000 1.224e-5 -90.00 1.224e-5 -90.00 4.638e-4 90.000
1.19800000 5.949e-4 90.000 1.225e-5 -90.00 1.225e-5 -90.00 4.642e-4 90.000
1.19900000 5.954e-4 90.000 1.226e-5 -90.00 1.226e-5 -90.00 4.646e-4 90.000
1.20000000 5.959e-4 90.000 1.227e-5 -90.00 1.227e-5 -90.00 4.649e-4 90.000
1.20100000 5.964e-4 90.000 1.228e-5 -90.00 1.228e-5 -90.00 4.653e-4 90.000
1.20200000 5.969e-4 90.000 1.229e-5 -90.00 1.229e-5 -90.00 4.657e-4 90.000
1.20300000 5.974e-4 90.000 1.230e-5 -90.00 1.230e-5 -90.00 4.661e-4 90.000
1.20400000 5.979e-4 90.000 1.231e-5 -90.00 1.231e-5 -90.00 4.665e-4 90.000
1.20500000 5.984e-4 90.000 1.232e-5 -90.00 1.232e-5 -90.00 4.669e-4 90.000
1.20600000 5.989e-4 90.000 1.233e-5 -90.00 1.233e-5 -90.00 4.673e-4 90.000
1.20700000 5.994e-4 90.000 1.234e-5 -90.00 1.234e-5 -90.00 4.677e-4 90.000
1.20800000 5.999e-4 90.000 1.235e-5 -90.00 1.235e-5 -90.00 4.681e-4 90.000
1.20900000 6.004e-4 90.000 1.236e-5 -90.00 1.236e-5 -90.00 4.684e-4 90.000
1.21000000 6.009e-4 90.000 1.237e-5 -90.00 1.237e-5 -90.00 4.688e-4 90.000
1.21100000 6.014e-4 90.000 1.238e-5 -90.00 1.238e-5 -90.00 4.692e-4 90.000
1.21200000 6.019e-4 90.000 1.239e-5 -90.00 1.239e-5 -90.00 4.696e-4 90.000
1.21300000 6.024e-4 90.000 1.240e-5 -90.00 1.240e-5 -90.00 4.700e-4 90.000
1.21400000 6.029e-4 90.000 1.241e-5 -90.00 1.241e-5 -90.00 4.704e-4 90.000
1.21500000 6.034e-4 90.000 1.242e-5 -90.00 1.242e-5 -90.00 4.708e-4 90.000
1.21600000 6.039e-4 90.000 1.244e-5 -90.00 1.244e-5 -90.00 4.712e-4 90.000
1.21700000 6.044e-4 90.000 1.245e-5 -90.00 1.245e-5 -90.00 4.715e-4 90.000
1.21800000 6.049e-4 90.000 1.246e-5 -90.00 1.246e-5 -90.00 4.719e-4 90.000
1.21900000 6.054e-4 90.000 1.247e-5 -90.00 1.247e-5 -90.00 4.723e-4 90.000
1.22000000 6.059e-4 90.000 1.248e-5 -90.00 1.248e-5 -90.00 4.727e-4 90.000
1.22100000 6.064e-4 90.000 1.249e-5 -90.00 1.249e-5 -90.00 4.731e-4 90.000
1.22200000 6.069e-4 90.000 1.250e-5 -90.00 1.250e-5 -90.00 4.735e-4 90.000
1.22300000 6.074e-4 90.000 1.251e-5 -90.00 1.251e-5 -90.00 4.739e-4 90.000
1.22400000 6.079e-4 90.000 1.252e-5 -90.00 1.252e-5 -90.00 4.743e-4 90.000
1.22500000 6.083e-4 90.000 1.253e-5 -90.00 1.253e-5 -90.00 4.746e-4 90.000
1.22600000 6.088e-4 90.000 1.254e-5 -90.00 1.254e-5 -90.00 4.750e-4 90.000
1.22700000 6.093e-4 90.000 1.255e-5 -90.00 1.255e-5 -90.00 4.754e-4 90.000
1.22800000 6.098e-4 90.000 1.256e-5 -90.00 1.256e-5 -90.00 4.758e-4 90.000
1.22900000 6.103e-4 90.000 1.257e-5 -90.00 1.257e-5 -90.00 4.762e-4 90.000
1.23000000 6.108e-4 90.000 1.258e-5 -90.00 1.258e-5 -90.00 4.766e-4 90.000
1.23100000 6.113e-4 90.000 1.259e-5 -90.00 1.259e-5 -90.00 4.770e-4 90.000
1.23200000 6.118e-4 90.000 1.260e-5 -90.00 1.260e-5 -90.00 4.774e-4 90.000
1.23300000 6.123e-4 90.000 1.261e-5 -90.00 1.261e-5 -90.00 4.777e-4 90.000
1.23400000 6.128e-4 90.000 1.262e-5 -90.00 1.262e-5 -90.00 4.781e-4 90.000
1.23500000 6.133e-4 90.000 1.263e-5 -90.00 1.263e-5 -90.00 4.785e-4 90.000
1.23600000 6.138e-4 90.000 1.264e-5 -90.00 1.264e-5 -90.00 4.789e-4 90.000
1.23700000 6.143e-4 90.000 1.265e-5 -90.00 1.265e-5 -90.00 4.793e-4 90.000
1.23800000 6.148e-4 90.000 1.266e-5 -90.00 1.266e-5 -90.00 4.797e-4 90.000
1.23900000 6.153e-4 90.000 1.267e-5 -90.00 1.267e-5 -90.00 4.801e-4 90.000
1.24000000 6.158e-4 90.000 1.268e-5 -90.00 1.268e-5 -90.00 4.805e-4 90.000
1.24100000 6.163e-4 90.000 1.269e-5 -90.00 1.269e-5 -90.00 4.808e-4 90.000
1.24200000 6.168e-4 90.000 1.270e-5 -90.00 1.270e-5 -90.00 4.812e-4 90.000
1.24300000 6.173e-4 90.000 1.271e-5 -90.00 1.271e-5 -90.00 4.816e-4 90.000
1.24400000 6.178e-4 90.000 1.272e-5 -90.00 1.272e-5 -90.00 4.820e-4 90.000
1.24500000 6.183e-4 90.000 1.273e-5 -90.00 1.273e-5 -90.00 4.824e-4 90.000
1.24600000 6.188e-4 90.000 1.274e-5 -90.00 1.274e-5 -90.00 4.828e-4 90.000
1.24700000 6.193e-4 90.000 1.275e-5 -90.00 1.275e-5 -90.00 4.832e-4 90.000
1.24800000 6.198e-4 90.000 1.276e-5 -90.00 1.276e-5 -90.00 4.836e-4 90.000
1.24900000 6.203e-4 90.000 1.277e-5 -90.00 1.277e-5 -90.00 4.839e-4 90.000
1.25000000 6.208e-4 90.000 1.278e-5 -90.00 1.278e-5 -90.00 4.843e-4 90.000
1.25100000 6.213e-4 90.000 1.279e-5 -90.00 1.279e-5 -90.00 4.847e-4 90.000
1.25200000 6.218e-4 90.000 1.280e-5 -90.00 1.280e-5 -90.00 4.851e-4 90.000
1.25300000 6.223e-4 90.000 1.281e-5 -90.00 1.281e-5 -90.00 4.855e-4 90.000
1.25400000 6.228e-4 90.000 1.282e-5 -90.00 1.282e-5 -90.00 4.859e-4 90.000
1.25500000 6.233e-4 90.000 1.283e-5 -90.00 1.283e-5 -90.00 4.863e-4 90.000
1.25600000 6.238e-4 90.000 1.285e-5 -90.00 1.285e-5 -90.00 4.867e-4 90.000
1.25700000 6.243e-4 90.000 1.286e-5 -90.00 1.286e-5 -90.00 4.870e-4 90.000
1.25800000 6.248e-4 90.000 1.287e-5 -90.00 1.287e-5 -90.00 4.874e-4 90.000
1.25900000 6.253e-4 90.000 1.288e-5 -90.00 1.288e-5 -90.00 4.878e-4 90.000
1.26000000 6.258e-4 90.000 1.289e-5 -90.00 1.289e-5 -90.00 4.882e-4 90.000
1.26100000 6.262e-4 90.000 1.290e-5 -90.00 1.290e-5 -90.00 4.886e-4 90.000
1.26200000 6.267e-4 90.000 1.291e-5 -90.00 1.291e-5 -90.00 4.890e-4 90.000
1.26300000 6.272e-4 90.000 1.292e-5 -90.00 1.292e-5 -90.00 4.894e-4 90.000
1.26400000 6.277e-4 90.000 1.293e-5 -90.00 1.293e-5 -90.00 4.898e-4 90.000
1.26500000 6.282e-4 90.000 1.294e-5 -90.00 1.294e-5 -90.00 4.901e-4 90.000
1.26600000 6.287e-4 90.000 1.295e-5 -90.00 1.295e-5 -90.00 4.905e-4 90.000
1.26700000 6.292e-4 90.000 1.296e-5 -90.00 1.296e-5 -90.00 4.909e-4 90.000
1.26800000 6.297e-4 90.000 1.297e-5 -90.00 1.297e-5 -90.00 4.913e-4 90.000
1.26900000 6.302e-4 90.000 1.298e-5 -90.00 1.298e-5 -90.00 4.917e-4 90.000
1.27000000 6.307e-4 90.000 1.299e-5 -90.00 1.299e-5 -90.00 4.921e-4 90.000
1.27100000 6.312e-4 90.000 1.300e-5 -90.00 1.300e-5 -90.00 4.925e-4 90.000
1.27200000 6.317e-4 90.000 1.301e-5 -90.00 1.301e-5 -90.00 4.929e-4 90.000
1.27300000 6.322e-4 90.000 1.302e-5 -90.00 1.302e-5 -90.00 4.933e-4 90.000
1.27400000 6.327e-4 90.000 1.303e-5 -90.00 1.303e-5 -90.00 4.936e-4 90.000
1.27500000 6.332e-4 90.000 1.304e-5 -90.00 1.304e-5 -90.00 4.940e-4 90.000
1.27600000 6.337e-4 90.000 1.305e-5 -90.00 1.305e-5 -90.00 4.944e-4 90.000
1.27700000 6.342e-4 90.000 1.306e-5 -90.00 1.306e-5 -90.00 4.948e-4 90.000
1.27800000 6.347e-4 90.000 1.307e-5 -90.00 1.307e-5 -90.00 4.952e-4 90.000
1.27900000 6.352e-4 90.000 1.308e-5 -90.00 1.308e-5 -90.00 4.956e-4 90.000
1.28000000 6.357e-4 90.000 1.309e-5 -90.00 1.309e-5 -90.00 4.960e-4 90.000
1.28100000 6.362e-4 90.000 1.310e-5 -90.00 1.310e-5 -90.00 4.964e-4 90.000
1.28200000 6.367e-4 90.000 1.311e-5 -90.00 1.311e-5 -90.00 4.967e-4 90.000
1.28300000 6.372e-4 90.000 1.312e-5 -90.00 1.312e-5 -90.00 4.971e-4 90.000
1.28400000 6.377e-4 90.000 1.313e-5 -90.00 1.313e-5 -90.00 4.975e-4 90.000
1.28500000 6.382e-4 90.000 1.314e-5 -90.00 1.314e-5 -90.00 4.979e-4 90.000
1.28600000 6.387e-4 90.000 1.315e-5 -90.00 1.315e-5 -90.00 4.983e-4 90.000
1.28700000 6.392e-4 90.000 1.316e-5 -90.00 1.316e-5 -90.00 4.987e-4 90.000
1.28800000 6.397e-4 90.000 1.317e-5 -90.00 1.317e-5 -90.00 4.991e-4 90.000
1.28900000 6.402e-4 90.000 1.318e-5 -90.00 1.318e-5 -90.00 4.995e-4 90.000
1.29000000 6.407e-4 90.000 1.319e-5 -90.00 1.319e-5 -90.00 4.998e-4 90.000
1.29100000 6.412e-4 90.000 1.320e-5 -90.00 1.320e-5 -90.00 5.002e-4 90.000
1.29200000 6.417e-4 90.000 1.321e-5 -90.00 1.321e-5 -90.00 5.006e-4 90.000
1.29300000 6.422e-4 90.000 1.322e-5 -90.00 1.322e-5 -90.00 5.010e-4 90.000
1.29400000 6.427e-4 90.000 1.323e-5 -90.00 1.323e-5 -90.00 5.014e-4 90.000
1.29500000 6.432e-4 90.000 1.325e-5 -90.00 1.325e-5 -90.00 5.018e-4 90.000
1.29600000 6.437e-4 90.000 1.326e-5 -90.00 1.326e-5 -90.00 5.022e-4 90.000
1.29700000 6.442e-4 90.000 1.327e-5 -90.00 1.327e-5 -90.00 5.026e-4 90.000
1.29800000 6.446e-4 90.000 1.328e-5 -90.00 1.328e-5 -90.00 5.029e-4 90.000
1.29900000 6.451e-4 90.000 1.329e-5 -90.00 1.329e-5 -90.00 5.033e-4 90.000
1.30000000 6.456e-4 90.000 1.330e-5 -90.00 1.330e-5 -90.00 5.037e-4 90.000
1.30100000 6.461e-4 90.000 1.331e-5 -90.00 1.331e-5 -90.00 5.041e-4 90.000
1.30200000 6.466e-4 90.000 1.332e-5 -90.00 1.332e-5 -90.00 5.045e-4 90.000
1.30300000 6.471e-4 90.000 1.333e-5 -90.00 1.333e-5 -90.00 5.049e-4 90.000
1.30400000 6.476e-4 90.000 1.334e-5 -90.00 1.334e-5 -90.00 5.053e-4 90.000
1.30500000 6.481e-4 90.000 1.335e-5 -90.00 1.335e-5 -90.00 5.057e-4 90.000
1.30600000 6.486e-4 90.000 1.336e-5 -90.00 1.336e-5 -90.00 5.060e-4 90.000
1.30700000 6.491e-4 90.000 1.337e-5 -90.00 1.337e-5 -90.00 5.064e-4 90.000
1.30800000 6.496e-4 90.000 1.338e-5 -90.00 1.338e-5 -90.00 5.068e-4 90.000
1.30900000 6.501e-4 90.000 1.339e-5 -90.00 1.339e-5 -90.00 5.072e-4 90.000
1.31000000 6.506e-4 90.000 1.340e-5 -90.00 1.340e-5 -90.00 5.076e-4 90.000
1.31100000 6.511e-4 90.000 1.341e-5 -90.00 1.341e-5 -90.00 5.080e-4 90.000
1.31200000 6.516e-4 90.000 1.342e-5 -90.00 1.342e-5 -90.00 5.084e-4 90.000
1.31300000 6.521e-4 90.000 1.343e-5 -90.00 1.343e-5 -90.00 5.088e-4 90.000
1.31400000 6.526e-4 90.000 1.344e-5 -90.00 1.344e-5 -90.00 5.091e-4 90.000
1.31500000 6.531e-4 90.000 1.345e-5 -90.00 1.345e-5 -90.00 5.095e-4 90.000
1.31600000 6.536e-4 90.000 1.346e-5 -90.00 1.346e-5 -90.00 5.099e-4 90.000
1.31700000 6.541e-4 90.000 1.347e-5 -90.00 1.347e-5 -90.00 5.103e-4 90.000
1.31800000 6.546e-4 90.000 1.348e-5 -90.00 1.348e-5 -90.00 5.107e-4 90.000
1.31900000 6.551e-4 90.000 1.349e-5 -90.00 1.349e-5 -90.00 5.111e-4 90.000
1.32000000 6.556e-4 90.000 1.350e-5 -90.00 1.350e-5 -90.00 5.115e-4 90.000
1.32100000 6.561e-4 90.000 1.351e-5 -90.00 1.351e-5 -90.00 5.119e-4 90.000
1.32200000 6.566e-4 90.000 1.352e-5 -90.00 1.352e-5 -90.00 5.122e-4 90.000
1.32300000 6.571e-4 90.000 1.353e-5 -90.00 1.353e-5 -90.00 5.126e-4 90.000
1.32400000 6.576e-4 90.000 1.354e-5 -90.00 1.354e-5 -90.00 5.130e-4 90.000
1.32500000 6.581e-4 90.000 1.355e-5 -90.00 1.355e-5 -90.00 5.134e-4 90.000
1.32600000 6.586e-4 90.000 1.356e-5 -90.00 1.356e-5 -90.00 5.138e-4 90.000
1.32700000 6.591e-4 90.000 1.357e-5 -90.00 1.357e-5 -90.00 5.142e-4 90.000
1.32800000 6.596e-4 90.000 1.358e-5 -90.00 1.358e-5 -90.00 5.146e-4 90.000
1.32900000 6.601e-4 90.000 1.359e-5 -90.00 1.359e-5 -90.00 5.150e-4 90.000
1.33000000 6.606e-4 90.000 1.360e-5 -90.00 1.360e-5 -90.00 5.154e-4 90.000
1.33100000 6.611e-4 90.000 1.361e-5 -90.00 1.361e-5 -90.00 5.157e-4 90.000
1.33200000 6.616e-4 90.000 1.362e-5 -90.00 1.362e-5 -90.00 5.161e-4 90.000
1.33300000 6.621e-4 90.000 1.363e-5 -90.00 1.363e-5 -90.00 5.165e-4 90.000
1.33400000 6.626e-4 90.000 1.365e-5 -90.00 1.365e-5 -90.00 5.169e-4 90.000
1.33500000 6.631e-4 90.000 1.366e-5 -90.00 1.366e-5 -90.00 5.173e-4 90.000
1.33600000 6.635e-4 90.000 1.367e-5 -90.00 1.367e-5 -90.00 5.177e-4 90.000
1.33700000 6.640e-4 90.000 1.368e-5 -90.00 1.368e-5 -90.00 5.181e-4 90.000
1.33800000 6.645e-4 90.000 1.369e-5 -90.00 1.369e-5 -90.00 5.185e-4 90.000
1.33900000 6.650e-4 90.000 1.370e-5 -90.00 1.370e-5 -90.00 5.188e-4 90.000
1.34000000 6.655e-4 90.000 1.371e-5 -90.00 1.371e-5 -90.00 5.192e-4 90.000
1.34100000 6.660e-4 90.000 1.372e-5 -90.00 1.372e-5 -90.00 5.196e-4 90.000
1.34200000 6.665e-4 90.000 1.373e-5 -90.00 1.373e-5 -90.00 5.200e-4 90.000
1.34300000 6.670e-4 90.000 1.374e-5 -90.00 1.374e-5 -90.00 5.204e-4 90.000
1.34400000 6.675e-4 90.000 1.375e-5 -90.00 1.375e-5 -90.00 5.208e-4 90.000
1.34500000 6.680e-4 90.000 1.376e-5 -90.00 1.376e-5 -90.00 5.212e-4 90.000
1.34600000 6.685e-4 90.000 1.377e-5 -90.00 1.377e-5 -90.00 5.216e-4 90.000
1.34700000 6.690e-4 90.000 1.378e-5 -90.00 1.378e-5 -90.00 5.219e-4 90.000
1.34800000 6.695e-4 90.000 1.379e-5 -90.00 1.379e-5 -90.00 5.223e-4 90.000
1.34900000 6.700e-4 90.000 1.380e-5 -90.00 1.380e-5 -90.00 5.227e-4 90.000
1.35000000 6.705e-4 90.000 1.381e-5 -90.00 1.381e-5 -90.00 5.231e-4 90.000
1.35100000 6.710e-4 90.000 1.382e-5 -90.00 1.382e-5 -90.00 5.235e-4 90.000
1.35200000 6.715e-4 90.000 1.383e-5 -90.00 1.383e-5 -90.00 5.239e-4 90.000
1.35300000 6.720e-4 90.000 1.384e-5 -90.00 1.384e-5 -90.00 5.243e-4 90.000
1.35400000 6.725e-4 90.000 1.385e-5 -90.00 1.385e-5 -90.00 5.247e-4 90.000
1.35500000 6.730e-4 90.000 1.386e-5 -90.00 1.386e-5 -90.00 5.250e-4 90.000
1.35600000 6.735e-4 90.000 1.387e-5 -90.00 1.387e-5 -90.00 5.254e-4 90.000
1.35700000 6.740e-4 90.000 1.388e-5 -90.00 1.388e-5 -90.00 5.258e-4 90.000
1.35800000 6.745e-4 90.000 1.389e-5 -90.00 1.389e-5 -90.00 5.262e-4 90.000
1.35900000 6.750e-4 90.000 1.390e-5 -90.00 1.390e-5 -90.00 5.266e-4 90.000
1.36000000 6.755e-4 90.000 1.391e-5 -90.00 1.391e-5 -90.00 5.270e-4 90.000
1.36100000 6.760e-4 90.000 1.392e-5 -90.00 1.392e-5 -90.00 5.274e-4 90.000
1.36200000 6.765e-4 90.000 1.393e-5 -90.00 1.393e-5 -90.00 5.278e-4 90.000
1.36300000 6.770e-4 90.000 1.394e-5 -90.00 1.394e-5 -90.00 5.281e-4 90.000
1.36400000 6.775e-4 90.000 1.395e-5 -90.00 1.395e-5 -90.00 5.285e-4 90.000
1.36500000 6.780e-4 90.000 1.396e-5 -90.00 1.396e-5 -90.00 5.289e-4 90.000
1.36600000 6.785e-4 90.000 1.397e-5 -90.00 1.397e-5 -90.00 5.293e-4 90.000
1.36700000 6.790e-4 90.000 1.398e-5 -90.00 1.398e-5 -90.00 5.297e-4 90.000
1.36800000 6.795e-4 90.000 1.399e-5 -90.00 1.399e-5 -90.00 5.301e-4 90.000
1.36900000 6.800e-4 90.000 1.400e-5 -90.00 1.400e-5 -90.00 5.305e-4 90.000
1.37000000 6.805e-4 90.000 1.401e-5 -90.00 1.401e-5 -90.00 5.309e-4 90.000
1.37100000 6.810e-4 90.000 1.402e-5 -90.00 1.402e-5 -90.00 5.312e-4 90.000
1.37200000 6.815e-4 90.000 1.403e-5 -90.00 1.403e-5 -90.00 5.316e-4 90.000
1.37300000 6.820e-4 90.000 1.405e-5 -90.00 1.405e-5 -90.00 5.320e-4 90.000
1.37400000 6.825e-4 90.000 1.406e-5 -90.00 1.406e-5 -90.00 5.324e-4 90.000
1.37500000 6.829e-4 90.000 1.407e-5 -90.00 1.407e-5 -90.00 5.328e-4 90.000
1.37600000 6.834e-4 90.000 1.408e-5 -90.00 1.408e-5 -90.00 5.332e-4 90.000
1.37700000 6.839e-4 90.000 1.409e-5 -90.00 1.409e-5 -90.00 5.336e-4 90.000
1.37800000 6.844e-4 90.000 1.410e-5 -90.00 1.410e-5 -90.00 5.340e-4 90.000
1.37900000 6.849e-4 90.000 1.411e-5 -90.00 1.411e-5 -90.00 5.344e-4 90.000
1.38000000 6.854e-4 90.000 1.412e-5 -90.00 1.412e-5 -90.00 5.347e-4 90.000
1.38100000 6.859e-4 90.000 1.413e-5 -90.00 1.413e-5 -90.00 5.351e-4 90.000
1.38200000 6.864e-4 90.000 1.414e-5 -90.00 1.414e-5 -90.00 5.355e-4 90.000
1.38300000 6.869e-4 90.000 1.415e-5 -90.00 1.415e-5 -90.00 5.359e-4 90.000
1.38400000 6.874e-4 90.000 1.416e-5 -90.00 1.416e-5 -90.00 5.363e-4 90.000
1.38500000 6.879e-4 90.000 1.417e-5 -90.00 1.417e-5 -90.00 5.367e-4 90.000
1.38600000 6.884e-4 90.000 1.418e-5 -90.00 1.418e-5 -90.00 5.371e-4 90.000
1.38700000 6.889e-4 90.000 1.419e-5 -90.00 1.419e-5 -90.00 5.375e-4 90.000
1.38800000 6.894e-4 90.000 1.420e-5 -90.00 1.420e-5 -90.00 5.378e-4 90.000
1.38900000 6.899e-4 90.000 1.421e-5 -90.00 1.421e-5 -90.00 5.382e-4 90.000
1.39000000 6.904e-4 90.000 1.422e-5 -90.00 1.422e-5 -90.00 5.386e-4 90.000
1.39100000 6.909e-4 90.000 1.423e-5 -90.00 1.423e-5 -90.00 5.390e-4 90.000
1.39200000 6.914e-4 90.000 1.424e-5 -90.00 1.424e-5 -90.00 5.394e-4 90.000
1.39300000 6.919e-4 90.000 1.425e-5 -90.00 1.425e-5 -90.00 5.398e-4 90.000