! Sonnet Data File
! From: em Version : 14.52
! From Project: Lm_v4
! Data is De-embedded 
! Data File Written: 03/14/2018 23:18:41
!< HDATE 03/14/2018 23:10:57
!< MDATE 03/14/2018 23:10:57
# GHZ Z MA R 1.0
0.10000000 0.156783 90.000 0.089109 -90.00 0.089109 -90.00 0.236494 90.000
!< P1 F=0.1 Eeff=(undefined: sl) Z0=(undefined: sl) R=0.0 C=0.0 
!< P2 F=0.1 Eeff=(undefined: sl) Z0=(undefined: sl) R=0.0 C=0.0 
0.12000000 0.188484 90.000 0.106935 -90.00 0.106935 -90.00 0.284392 90.000
0.14000000 0.220184 89.999 0.124763 -90.00 0.124763 -90.00 0.332290 89.999
0.16000000 0.251884 89.999 0.142590 -90.00 0.142590 -90.00 0.380187 89.999
0.18000000 0.283583 89.999 0.160417 -90.00 0.160417 -90.00 0.428084 89.999
0.20000000 0.315282 89.999 0.178245 -90.00 0.178245 -90.00 0.475980 89.999
0.22000000 0.346980 89.999 0.196074 -90.00 0.196074 -90.00 0.523877 89.999
0.24000000 0.378678 89.999 0.213902 -90.00 0.213902 -90.00 0.571773 89.999
0.26000000 0.410376 89.998 0.231731 -90.00 0.231731 -90.00 0.619669 89.999
0.28000000 0.442073 89.998 0.249561 -90.00 0.249561 -90.00 0.667565 89.999
0.30000000 0.473770 89.998 0.267391 -90.00 0.267391 -90.00 0.715461 89.999
0.32000000 0.505467 89.998 0.285221 -90.00 0.285221 -90.00 0.763357 89.999
0.34000000 0.537164 89.998 0.303052 -90.00 0.303052 -90.00 0.811253 89.999
0.36000000 0.568860 89.998 0.320884 -90.00 0.320884 -90.00 0.859149 89.999
0.38000000 0.600557 89.998 0.338716 -90.00 0.338716 -90.00 0.907045 89.999
0.40000000 0.632253 89.998 0.356548 -90.00 0.356548 -90.00 0.954941 89.999
0.42000000 0.663949 89.998 0.374382 -90.00 0.374382 -90.00 1.002837 89.999
0.44000000 0.695645 89.998 0.392216 -90.00 0.392216 -90.00 1.050734 89.999
0.46000000 0.727342 89.998 0.410051 -90.00 0.410051 -90.00 1.098631 89.999
0.48000000 0.759038 89.998 0.427886 -90.00 0.427886 -90.00 1.146529 89.999
0.50000000 0.790734 89.998 0.445722 -90.00 0.445722 -90.00 1.194426 89.999
0.52000000 0.822431 89.998 0.463559 -90.00 0.463559 -90.00 1.242324 89.999
0.54000000 0.854127 89.998 0.481397 -90.00 0.481397 -90.00 1.290223 89.999
0.56000000 0.885824 89.998 0.499236 -90.00 0.499236 -90.00 1.338122 89.999
0.58000000 0.917521 89.998 0.517076 -90.00 0.517076 -90.00 1.386022 89.999
0.60000000 0.949219 89.998 0.534916 -90.00 0.534916 -90.00 1.433922 89.999
0.62000000 0.980916 89.998 0.552758 -90.00 0.552758 -90.00 1.481823 89.999
0.64000000 1.012614 89.998 0.570600 -90.00 0.570600 -90.00 1.529725 89.999
0.66000000 1.044312 89.998 0.588443 -90.00 0.588443 -90.00 1.577627 89.999
0.68000000 1.076011 89.998 0.606288 -90.00 0.606288 -90.00 1.625530 89.999
0.70000000 1.107710 89.999 0.624133 -90.00 0.624133 -90.00 1.673434 89.999
0.72000000 1.139410 89.999 0.641980 -90.00 0.641980 -90.00 1.721339 89.999
0.74000000 1.171110 89.999 0.659828 -90.00 0.659828 -90.00 1.769245 89.999
0.76000000 1.202810 89.999 0.677676 -90.00 0.677676 -90.00 1.817152 89.999
0.78000000 1.234511 89.999 0.695527 -90.00 0.695527 -90.00 1.865060 89.999
0.80000000 1.266213 89.999 0.713378 -90.00 0.713378 -90.00 1.912969 89.999
0.82000000 1.297916 89.999 0.731230 -90.00 0.731230 -90.00 1.960878 89.999
0.84000000 1.329619 89.999 0.749084 -90.00 0.749084 -90.00 2.008790 89.999
0.86000000 1.361323 89.999 0.766939 -90.00 0.766939 -90.00 2.056702 89.999
0.88000000 1.393027 89.999 0.784796 -90.00 0.784796 -90.00 2.104615 89.999
0.90000000 1.424733 89.999 0.802653 -90.00 0.802653 -90.00 2.152530 89.999
0.92000000 1.456439 89.999 0.820513 -90.00 0.820513 -90.00 2.200446 90.000
0.94000000 1.488146 89.999 0.838373 -90.00 0.838373 -90.00 2.248363 90.000
0.96000000 1.519854 89.999 0.856235 -90.00 0.856235 -90.00 2.296282 90.000
0.98000000 1.551562 89.999 0.874099 -90.00 0.874099 -90.00 2.344202 90.000
1.00000000 1.583272 89.999 0.891964 -90.00 0.891964 -90.00 2.392124 90.000
1.02000000 1.614983 89.999 0.909830 -90.00 0.909830 -90.00 2.440048 90.000
1.04000000 1.646695 89.999 0.927698 -90.00 0.927698 -90.00 2.487972 90.000
1.06000000 1.678408 89.999 0.945568 -90.00 0.945568 -90.00 2.535899 90.000
1.08000000 1.710122 89.999 0.963440 -90.00 0.963440 -90.00 2.583827 90.000
1.10000000 1.741837 89.999 0.981313 -90.00 0.981313 -90.00 2.631757 90.000
1.12000000 1.773553 89.999 0.999187 -90.00 0.999187 -90.00 2.679689 90.000
1.14000000 1.805270 89.999 1.017064 -90.00 1.017064 -90.00 2.727622 90.000
1.16000000 1.836989 89.999 1.034942 -90.00 1.034942 -90.00 2.775557 90.000
1.18000000 1.868709 89.999 1.052822 -90.00 1.052822 -90.00 2.823495 90.000
1.20000000 1.900430 89.999 1.070704 -90.00 1.070704 -90.00 2.871434 90.000
1.22000000 1.932153 89.999 1.088588 -90.00 1.088588 -90.00 2.919375 90.000
1.24000000 1.963877 89.999 1.106473 -90.00 1.106473 -90.00 2.967318 90.000
1.26000000 1.995602 89.999 1.124361 -90.00 1.124361 -90.00 3.015263 90.000
1.28000000 2.027329 89.999 1.142250 -90.00 1.142250 -90.00 3.063211 90.000
1.30000000 2.059057 89.999 1.160142 -90.00 1.160142 -90.00 3.111160 90.000
1.32000000 2.090787 90.000 1.178035 -90.00 1.178035 -90.00 3.159112 90.000
1.34000000 2.122519 90.000 1.195930 -90.00 1.195930 -90.00 3.207066 90.000
1.36000000 2.154252 90.000 1.213828 -90.00 1.213828 -90.00 3.255022 90.000
1.38000000 2.185986 90.000 1.231727 -90.00 1.231727 -90.00 3.302981 90.000
1.40000000 2.217722 90.000 1.249629 -90.00 1.249629 -90.00 3.350942 90.000
1.42000000 2.249460 90.000 1.267533 -90.00 1.267533 -90.00 3.398905 90.000
1.44000000 2.281200 90.000 1.285439 -90.00 1.285439 -90.00 3.446871 90.000
1.46000000 2.312941 90.000 1.303347 -90.00 1.303347 -90.00 3.494839 90.000
1.48000000 2.344684 90.000 1.321258 -90.00 1.321258 -90.00 3.542810 90.000
1.50000000 2.376429 90.000 1.339171 -90.00 1.339171 -90.00 3.590784 90.000
1.52000000 2.408176 90.000 1.357086 -90.00 1.357086 -90.00 3.638760 90.000
1.54000000 2.439925 90.000 1.375003 -90.00 1.375003 -90.00 3.686739 90.000
1.56000000 2.471676 90.000 1.392923 -90.00 1.392923 -90.00 3.734720 90.000
1.58000000 2.503428 90.000 1.410845 -90.00 1.410845 -90.00 3.782705 90.000
1.60000000 2.535183 90.000 1.428770 -90.00 1.428770 -90.00 3.830692 90.000
!< P1 F=1.6 Eeff=(5.67059086 -5.1762e-6) Z0=(64.0031297 2.92546e-5) R=0.31570512 C=2.80679e-4 
!< P2 F=1.6 Eeff=(1.03048213 0.0) Z0=(108.138198 -2.336e-6) R=2.30788642 C=6.7252e-5 
1.62000000 2.566940 90.000 1.446697 -90.00 1.446697 -90.00 3.878682 90.000
1.64000000 2.598699 90.000 1.464627 -90.00 1.464627 -90.00 3.926675 90.000
1.66000000 2.630459 90.000 1.482559 -90.00 1.482559 -90.00 3.974671 90.000
1.68000000 2.662222 90.000 1.500494 -90.00 1.500494 -90.00 4.022670 90.000
1.70000000 2.693988 90.000 1.518431 -90.00 1.518431 -90.00 4.070672 90.000
1.72000000 2.725755 90.000 1.536371 -90.00 1.536371 -90.00 4.118678 90.000
1.74000000 2.757525 90.000 1.554314 -90.00 1.554314 -90.00 4.166686 90.000
1.76000000 2.789297 90.000 1.572259 -90.00 1.572259 -90.00 4.214697 90.000
1.78000000 2.821071 90.000 1.590207 -90.00 1.590207 -90.00 4.262712 90.000
1.80000000 2.852847 90.000 1.608158 -90.00 1.608158 -90.00 4.310730 90.000
1.82000000 2.884626 90.000 1.626111 -90.00 1.626111 -90.00 4.358752 90.000
1.84000000 2.916408 90.000 1.644068 -90.00 1.644068 -90.00 4.406776 90.000
1.86000000 2.948191 90.000 1.662027 -90.00 1.662027 -90.00 4.454804 90.000
1.88000000 2.979978 90.000 1.679989 -90.00 1.679989 -90.00 4.502836 90.000
1.90000000 3.011766 90.000 1.697954 -90.00 1.697954 -90.00 4.550871 90.000
1.92000000 3.043558 90.000 1.715922 -90.00 1.715922 -90.00 4.598910 90.000
1.94000000 3.075352 90.000 1.733893 -90.00 1.733893 -90.00 4.646952 90.000
1.96000000 3.107148 90.001 1.751867 -90.00 1.751867 -90.00 4.694998 90.000
1.98000000 3.138948 90.001 1.769844 -90.00 1.769844 -90.00 4.743047 90.000
2.00000000 3.170749 90.001 1.787824 -90.00 1.787824 -90.00 4.791100 90.000
2.02000000 3.202554 90.001 1.805807 -90.00 1.805807 -90.00 4.839157 90.000
2.04000000 3.234362 90.001 1.823793 -90.00 1.823793 -90.00 4.887218 90.000
2.06000000 3.266172 90.001 1.841782 -90.00 1.841782 -90.00 4.935283 90.000
2.08000000 3.297985 90.001 1.859775 -90.00 1.859775 -90.00 4.983352 90.000
2.10000000 3.329801 90.001 1.877771 -90.00 1.877771 -90.00 5.031424 90.000
2.12000000 3.361619 90.001 1.895770 -90.00 1.895770 -90.00 5.079501 90.000
2.14000000 3.393441 90.001 1.913772 -90.00 1.913772 -90.00 5.127581 90.000
2.16000000 3.425266 90.001 1.931778 -90.00 1.931778 -90.00 5.175666 90.000
2.18000000 3.457094 90.001 1.949787 -90.00 1.949787 -90.00 5.223755 90.000
2.20000000 3.488924 90.001 1.967799 -90.00 1.967799 -90.00 5.271848 90.000
2.22000000 3.520758 90.001 1.985815 -90.00 1.985815 -90.00 5.319945 90.000
2.24000000 3.552595 90.001 2.003834 -90.00 2.003834 -90.00 5.368047 90.000
2.26000000 3.584435 90.001 2.021857 -90.00 2.021857 -90.00 5.416152 90.000
2.28000000 3.616278 90.001 2.039883 -90.00 2.039883 -90.00 5.464262 90.000
2.30000000 3.648125 90.001 2.057913 -90.00 2.057913 -90.00 5.512377 90.000
2.32000000 3.679974 90.001 2.075946 -90.00 2.075946 -90.00 5.560496 90.000
2.34000000 3.711827 90.001 2.093983 -90.00 2.093983 -90.00 5.608620 90.000
2.36000000 3.743684 90.001 2.112024 -90.00 2.112024 -90.00 5.656748 90.000
2.38000000 3.775543 90.001 2.130068 -90.00 2.130068 -90.00 5.704880 90.000
2.40000000 3.807406 90.001 2.148116 -90.00 2.148116 -90.00 5.753017 90.000
2.42000000 3.839273 90.001 2.166168 -90.00 2.166168 -90.00 5.801159 90.000
2.44000000 3.871142 90.001 2.184223 -90.00 2.184223 -90.00 5.849306 90.000
2.46000000 3.903016 90.001 2.202282 -90.00 2.202282 -90.00 5.897457 90.000
2.48000000 3.934893 90.001 2.220345 -90.00 2.220345 -90.00 5.945614 90.000
2.50000000 3.966773 90.001 2.238412 -90.00 2.238412 -90.00 5.993775 90.000
2.52000000 3.998657 90.001 2.256483 -90.00 2.256483 -90.00 6.041941 90.000
2.54000000 4.030545 90.001 2.274558 -90.00 2.274558 -90.00 6.090112 90.000
2.56000000 4.062436 90.001 2.292637 -90.00 2.292637 -90.00 6.138288 90.000
2.58000000 4.094331 90.001 2.310720 -90.00 2.310720 -90.00 6.186469 90.000
2.60000000 4.126230 90.001 2.328806 -90.00 2.328806 -90.00 6.234655 90.000
2.62000000 4.158132 90.001 2.346897 -90.00 2.346897 -90.00 6.282846 90.000
2.64000000 4.190038 90.001 2.364992 -90.00 2.364992 -90.00 6.331042 90.000
2.66000000 4.221949 90.001 2.383091 -90.00 2.383091 -90.00 6.379244 90.000
2.68000000 4.253863 90.001 2.401194 -90.00 2.401194 -90.00 6.427450 90.000
2.70000000 4.285780 90.001 2.419302 -90.00 2.419302 -90.00 6.475663 90.000
2.72000000 4.317702 90.001 2.437413 -90.00 2.437413 -90.00 6.523880 90.000
2.74000000 4.349628 90.001 2.455529 -90.00 2.455529 -90.00 6.572103 90.000
2.76000000 4.381558 90.001 2.473649 -90.00 2.473649 -90.00 6.620331 90.000
2.78000000 4.413492 90.001 2.491774 -90.00 2.491774 -90.00 6.668565 90.000
2.80000000 4.445429 90.001 2.509903 -90.00 2.509903 -90.00 6.716805 90.000
2.82000000 4.477371 90.001 2.528036 -90.00 2.528036 -90.00 6.765050 90.000
2.84000000 4.509318 90.001 2.546174 -90.00 2.546174 -90.00 6.813300 90.000
2.86000000 4.541268 90.001 2.564316 -90.00 2.564316 -90.00 6.861557 90.000
2.88000000 4.573222 90.001 2.582462 -90.00 2.582462 -90.00 6.909819 90.000
2.90000000 4.605181 90.001 2.600613 -90.00 2.600613 -90.00 6.958086 90.000
2.92000000 4.637144 90.001 2.618769 -90.00 2.618769 -90.00 7.006360 90.000
2.94000000 4.669111 90.001 2.636929 -90.00 2.636929 -90.00 7.054639 90.000
2.96000000 4.701083 90.001 2.655094 -90.00 2.655094 -90.00 7.102925 90.000
2.98000000 4.733059 90.001 2.673263 -90.00 2.673263 -90.00 7.151216 90.000
3.00000000 4.765040 90.001 2.691438 -90.00 2.691438 -90.00 7.199514 90.000
3.02000000 4.797025 90.001 2.709616 -90.00 2.709616 -90.00 7.247817 90.000
3.04000000 4.829014 90.001 2.727800 -90.00 2.727800 -90.00 7.296126 90.000
3.06000000 4.861008 90.001 2.745988 -90.00 2.745988 -90.00 7.344442 90.000
3.08000000 4.893007 90.001 2.764182 -90.00 2.764182 -90.00 7.392764 90.000
3.10000000 4.925010 90.001 2.782380 -90.00 2.782380 -90.00 7.441092 90.000
3.12000000 4.957017 90.001 2.800583 -90.00 2.800583 -90.00 7.489426 90.000
3.14000000 4.989030 90.001 2.818790 -90.00 2.818790 -90.00 7.537767 90.000
3.16000000 5.021047 90.001 2.837003 -90.00 2.837003 -90.00 7.586114 90.000
3.18000000 5.053069 90.001 2.855221 -90.00 2.855221 -90.00 7.634467 90.000
3.20000000 5.085095 90.001 2.873444 -90.00 2.873444 -90.00 7.682827 90.000
3.22000000 5.117127 90.001 2.891671 -90.00 2.891671 -90.00 7.731194 90.000
3.24000000 5.149163 90.001 2.909904 -90.00 2.909904 -90.00 7.779567 90.000
3.26000000 5.181204 90.001 2.928142 -90.00 2.928142 -90.00 7.827946 90.000
3.28000000 5.213250 90.001 2.946385 -90.00 2.946385 -90.00 7.876332 90.000
3.30000000 5.245301 90.001 2.964634 -90.00 2.964634 -90.00 7.924725 90.000
3.32000000 5.277357 90.001 2.982887 -90.00 2.982887 -90.00 7.973125 90.000
3.34000000 5.309418 90.001 3.001146 -90.00 3.001146 -90.00 8.021531 90.000
3.36000000 5.341483 90.001 3.019410 -90.00 3.019410 -90.00 8.069945 90.000
3.38000000 5.373554 90.001 3.037679 -90.00 3.037679 -90.00 8.118365 90.000
3.40000000 5.405631 90.000 3.055954 -90.00 3.055954 -90.00 8.166792 90.000
3.42000000 5.437712 90.000 3.074234 -90.00 3.074234 -90.00 8.215226 90.000
3.44000000 5.469798 90.000 3.092520 -90.00 3.092520 -90.00 8.263667 90.000
3.46000000 5.501890 90.000 3.110811 -90.00 3.110811 -90.00 8.312115 90.000
3.48000000 5.533987 90.000 3.129107 -90.00 3.129107 -90.00 8.360570 90.000
3.50000000 5.566089 90.000 3.147409 -90.00 3.147409 -90.00 8.409033 90.000
3.52000000 5.598196 90.000 3.165716 -90.00 3.165716 -90.00 8.457503 90.000
3.54000000 5.630309 90.000 3.184029 -90.00 3.184029 -90.00 8.505979 90.000
3.56000000 5.662427 90.000 3.202348 -90.00 3.202348 -90.00 8.554464 90.000
3.58000000 5.694551 90.000 3.220672 -90.00 3.220672 -90.00 8.602955 90.000
3.60000000 5.726680 90.000 3.239002 -90.00 3.239002 -90.00 8.651454 90.000
3.62000000 5.758815 90.000 3.257338 -90.00 3.257338 -90.00 8.699961 90.000
3.64000000 5.790955 90.000 3.275679 -90.00 3.275679 -90.00 8.748474 90.000
!< P1 F=3.64 Eeff=(5.67084013 -5.1621e-6) Z0=(64.0045344 2.91612e-5) R=0.14441639 C=2.80679e-4 
!< P2 F=3.64 Eeff=(1.03065625 0.0) Z0=(108.147326 0.0) R=0.0 C=6.72519e-5 
3.66000000 5.823084 90.000 3.294027 -90.00 3.294027 -90.00 8.796996 90.000
3.68000000 5.855219 90.000 3.312379 -90.00 3.312379 -90.00 8.845525 90.000
3.70000000 5.887359 90.000 3.330738 -90.00 3.330738 -90.00 8.894062 90.000
3.72000000 5.919505 90.000 3.349103 -90.00 3.349103 -90.00 8.942606 90.000
3.74000000 5.951656 90.000 3.367473 -90.00 3.367473 -90.00 8.991158 90.000
3.76000000 5.983812 90.000 3.385850 -90.00 3.385850 -90.00 9.039718 90.000
3.78000000 6.015974 90.001 3.404232 -90.00 3.404232 -90.00 9.088286 90.000
3.80000000 6.048141 90.001 3.422621 -90.00 3.422621 -90.00 9.136861 90.000
3.82000000 6.080314 90.001 3.441015 -90.00 3.441015 -90.00 9.185445 90.000
3.84000000 6.112492 90.001 3.459416 -90.00 3.459416 -90.00 9.234036 90.000
3.86000000 6.144676 90.001 3.477823 -90.00 3.477823 -90.00 9.282635 90.000
3.88000000 6.176865 90.001 3.496235 -90.00 3.496235 -90.00 9.331243 90.000
3.90000000 6.209061 90.001 3.514654 -90.00 3.514654 -90.00 9.379859 90.000
3.92000000 6.241262 90.001 3.533080 -90.00 3.533080 -90.00 9.428482 90.000
3.94000000 6.273468 90.001 3.551511 -90.00 3.551511 -90.00 9.477114 90.000
3.96000000 6.305681 90.001 3.569949 -90.00 3.569949 -90.00 9.525755 90.000
3.98000000 6.337899 90.001 3.588393 -90.00 3.588393 -90.00 9.574403 90.000
4.00000000 6.370123 90.001 3.606843 -90.00 3.606843 -90.00 9.623060 90.000
4.02000000 6.402353 90.001 3.625300 -90.00 3.625300 -90.00 9.671725 90.000
4.04000000 6.434589 90.001 3.643763 -90.00 3.643763 -90.00 9.720399 90.000
4.06000000 6.466831 90.002 3.662233 -90.00 3.662233 -90.00 9.769081 90.000
4.08000000 6.499079 90.002 3.680709 -90.00 3.680709 -90.00 9.817772 90.000
4.10000000 6.531332 90.002 3.699192 -90.00 3.699192 -90.00 9.866471 90.000
4.12000000 6.563592 90.002 3.717681 -90.00 3.717681 -90.00 9.915179 90.000
4.14000000 6.595858 90.002 3.736177 -90.00 3.736177 -90.00 9.963896 90.000
4.16000000 6.628130 90.002 3.754679 -90.00 3.754679 -90.00 10.01262 90.000
4.18000000 6.660408 90.002 3.773188 -90.00 3.773188 -90.00 10.06136 90.000
4.20000000 6.692693 90.002 3.791704 -90.00 3.791704 -90.00 10.11010 90.000
4.22000000 6.724984 90.002 3.810227 -90.00 3.810227 -90.00 10.15885 90.000
4.24000000 6.757280 90.002 3.828756 -90.00 3.828756 -90.00 10.20761 90.000
4.26000000 6.789584 90.002 3.847292 -90.00 3.847292 -90.00 10.25638 90.000
4.28000000 6.821893 90.002 3.865835 -90.00 3.865835 -90.00 10.30516 90.000
4.30000000 6.854209 90.002 3.884385 -90.00 3.884385 -90.00 10.35395 90.000
4.32000000 6.886531 90.002 3.902941 -90.00 3.902941 -90.00 10.40274 90.000
4.34000000 6.918860 90.002 3.921505 -90.00 3.921505 -90.00 10.45155 90.000
4.36000000 6.951195 90.002 3.940076 -90.00 3.940076 -90.00 10.50037 90.000
4.38000000 6.983537 90.003 3.958653 -90.00 3.958653 -90.00 10.54919 90.000
4.40000000 7.015885 90.003 3.977238 -90.00 3.977238 -90.00 10.59802 90.000
4.42000000 7.048240 90.003 3.995829 -90.00 3.995829 -90.00 10.64687 90.000
4.44000000 7.080602 90.003 4.014428 -90.00 4.014428 -90.00 10.69572 90.000
4.46000000 7.112970 90.003 4.033034 -90.00 4.033034 -90.00 10.74458 90.000
4.48000000 7.145344 90.003 4.051647 -90.00 4.051647 -90.00 10.79345 90.000
4.50000000 7.177726 90.003 4.070267 -90.00 4.070267 -90.00 10.84234 90.000
4.52000000 7.210114 90.003 4.088895 -90.00 4.088895 -90.00 10.89123 90.000
4.54000000 7.242509 90.003 4.107529 -90.00 4.107529 -90.00 10.94013 90.000
4.56000000 7.274911 90.003 4.126172 -90.00 4.126172 -90.00 10.98904 90.000
4.58000000 7.307320 90.003 4.144821 -90.00 4.144821 -90.00 11.03796 90.000
4.60000000 7.339735 90.003 4.163478 -90.00 4.163478 -90.00 11.08689 90.000
4.62000000 7.372158 90.003 4.182142 -90.00 4.182142 -90.00 11.13583 90.000
4.64000000 7.404588 90.003 4.200814 -90.00 4.200814 -90.00 11.18478 90.000
4.66000000 7.437024 90.003 4.219493 -90.00 4.219493 -90.00 11.23373 90.000
4.68000000 7.469468 90.003 4.238180 -90.00 4.238180 -90.00 11.28270 90.000
4.70000000 7.501918 90.003 4.256874 -90.00 4.256874 -90.00 11.33168 90.000
4.72000000 7.534376 90.003 4.275576 -90.00 4.275576 -90.00 11.38067 90.000
4.74000000 7.566841 90.003 4.294285 -90.00 4.294285 -90.00 11.42967 90.000
4.76000000 7.599313 90.003 4.313002 -90.00 4.313002 -90.00 11.47868 90.000
4.78000000 7.631792 90.004 4.331727 -90.00 4.331727 -90.00 11.52770 90.000
4.80000000 7.664279 90.004 4.350460 -90.00 4.350460 -90.00 11.57673 90.000
4.82000000 7.696772 90.004 4.369200 -90.00 4.369200 -90.00 11.62577 90.000
4.84000000 7.729273 90.004 4.387948 -90.00 4.387948 -90.00 11.67483 90.000
4.86000000 7.761782 90.004 4.406704 -90.00 4.406704 -90.00 11.72389 90.000
4.88000000 7.794298 90.004 4.425468 -90.00 4.425468 -90.00 11.77296 90.000
4.90000000 7.826821 90.004 4.444239 -90.00 4.444239 -90.00 11.82204 90.000
4.92000000 7.859352 90.004 4.463019 -90.00 4.463019 -90.00 11.87114 90.000
4.94000000 7.891890 90.004 4.481807 -90.00 4.481807 -90.00 11.92024 90.000
4.96000000 7.924436 90.004 4.500602 -90.00 4.500602 -90.00 11.96935 90.000
4.98000000 7.956989 90.004 4.519406 -90.00 4.519406 -90.00 12.01848 90.000
5.00000000 7.989550 90.004 4.538218 -90.00 4.538218 -90.00 12.06762 90.000
5.02000000 8.022119 90.004 4.557037 -90.00 4.557037 -90.00 12.11676 90.000
5.04000000 8.054695 90.004 4.575865 -90.00 4.575865 -90.00 12.16592 90.000
5.06000000 8.087279 90.004 4.594702 -90.00 4.594702 -90.00 12.21509 90.000
5.08000000 8.119870 90.004 4.613546 -90.00 4.613546 -90.00 12.26427 90.000
5.10000000 8.152470 90.004 4.632399 -90.00 4.632399 -90.00 12.31346 90.000
5.12000000 8.185077 90.004 4.651260 -90.00 4.651260 -90.00 12.36266 90.000
5.14000000 8.217692 90.004 4.670129 -90.00 4.670129 -90.00 12.41187 90.000
5.16000000 8.250315 90.004 4.689007 -90.00 4.689007 -90.00 12.46110 90.000
5.18000000 8.282946 90.004 4.707893 -90.00 4.707893 -90.00 12.51033 90.000
5.20000000 8.315585 90.004 4.726787 -90.00 4.726787 -90.00 12.55958 90.000
5.22000000 8.348232 90.004 4.745690 -90.00 4.745690 -90.00 12.60884 90.000
5.24000000 8.380887 90.004 4.764602 -90.00 4.764602 -90.00 12.65811 90.000
5.26000000 8.413550 90.004 4.783522 -90.00 4.783522 -90.00 12.70739 90.000
5.28000000 8.446221 90.004 4.802450 -90.00 4.802450 -90.00 12.75668 90.000
5.30000000 8.478900 90.004 4.821387 -90.00 4.821387 -90.00 12.80599 90.000
5.32000000 8.511588 90.004 4.840333 -90.00 4.840333 -90.00 12.85530 90.000
5.34000000 8.544284 90.004 4.859288 -90.00 4.859288 -90.00 12.90463 90.000
5.36000000 8.576987 90.004 4.878251 -90.00 4.878251 -90.00 12.95397 90.000
5.38000000 8.609700 90.004 4.897223 -90.00 4.897223 -90.00 13.00332 90.000
5.40000000 8.642420 90.004 4.916204 -90.00 4.916204 -90.00 13.05268 90.000
5.42000000 8.675149 90.004 4.935194 -90.00 4.935194 -90.00 13.10206 90.000
5.44000000 8.707886 90.004 4.954192 -90.00 4.954192 -90.00 13.15144 90.000
5.46000000 8.740632 90.004 4.973199 -90.00 4.973199 -90.00 13.20084 90.000
5.48000000 8.773386 90.004 4.992216 -90.00 4.992216 -90.00 13.25025 90.000
5.50000000 8.806148 90.004 5.011241 -90.00 5.011241 -90.00 13.29968 90.000
5.52000000 8.838920 90.004 5.030275 -90.00 5.030275 -90.00 13.34911 90.000
5.54000000 8.871699 90.004 5.049319 -90.00 5.049319 -90.00 13.39856 90.000
5.56000000 8.904488 90.004 5.068371 -90.00 5.068371 -90.00 13.44802 90.000
5.58000000 8.937285 90.004 5.087432 -90.00 5.087432 -90.00 13.49749 90.000
5.60000000 8.970090 90.004 5.106503 -90.00 5.106503 -90.00 13.54697 90.000
5.62000000 9.002905 90.004 5.125583 -90.00 5.125583 -90.00 13.59647 90.000
5.64000000 9.035728 90.004 5.144672 -90.00 5.144672 -90.00 13.64597 90.000
5.66000000 9.068560 90.004 5.163770 -90.00 5.163770 -90.00 13.69550 90.000
5.68000000 9.101400 90.004 5.182878 -90.00 5.182878 -90.00 13.74503 90.000
5.70000000 9.134250 90.004 5.201995 -90.00 5.201995 -90.00 13.79457 90.000
5.72000000 9.167108 90.004 5.221121 -90.00 5.221121 -90.00 13.84413 90.000
5.74000000 9.199976 90.004 5.240257 -90.00 5.240257 -90.00 13.89370 90.000
5.76000000 9.232852 90.004 5.259402 -90.00 5.259402 -90.00 13.94329 90.000
5.78000000 9.265737 90.004 5.278557 -90.00 5.278557 -90.00 13.99289 90.000
5.80000000 9.298632 90.004 5.297721 -90.00 5.297721 -90.00 14.04249 90.000
5.82000000 9.331535 90.004 5.316895 -90.00 5.316895 -90.00 14.09212 90.000
5.84000000 9.364448 90.004 5.336078 -90.00 5.336078 -90.00 14.14175 90.000
5.86000000 9.397370 90.004 5.355271 -90.00 5.355271 -90.00 14.19140 90.000
5.88000000 9.430300 90.004 5.374473 -90.00 5.374473 -90.00 14.24106 90.000
5.90000000 9.463241 90.004 5.393686 -90.00 5.393686 -90.00 14.29074 90.000
5.92000000 9.496190 90.004 5.412908 -90.00 5.412908 -90.00 14.34043 90.000
5.94000000 9.529149 90.004 5.432139 -90.00 5.432139 -90.00 14.39013 90.000
5.96000000 9.562117 90.004 5.451381 -90.00 5.451381 -90.00 14.43984 90.000
5.98000000 9.595094 90.004 5.470632 -90.00 5.470632 -90.00 14.48957 90.000
6.00000000 9.628081 90.004 5.489894 -90.00 5.489894 -90.00 14.53931 90.000
6.02000000 9.661077 90.004 5.509165 -90.00 5.509165 -90.00 14.58906 90.000
6.04000000 9.694083 90.004 5.528446 -90.00 5.528446 -90.00 14.63883 90.000
6.06000000 9.727098 90.004 5.547737 -90.00 5.547737 -90.00 14.68861 90.000
6.08000000 9.760123 90.004 5.567038 -90.00 5.567038 -90.00 14.73841 90.000
6.10000000 9.793157 90.004 5.586349 -90.00 5.586349 -90.00 14.78822 90.000
6.12000000 9.826201 90.004 5.605671 -90.00 5.605671 -90.00 14.83804 90.000
6.14000000 9.859255 90.004 5.625002 -90.00 5.625002 -90.00 14.88788 90.000
6.16000000 9.892318 90.004 5.644344 -90.00 5.644344 -90.00 14.93772 90.000
6.18000000 9.925391 90.003 5.663695 -90.00 5.663695 -90.00 14.98759 90.000
6.20000000 9.958474 90.003 5.683057 -90.00 5.683057 -90.00 15.03747 90.000
6.22000000 9.991567 90.003 5.702430 -90.00 5.702430 -90.00 15.08736 90.000
6.24000000 10.02467 90.003 5.721812 -90.00 5.721812 -90.00 15.13726 90.000
6.26000000 10.05778 90.003 5.741205 -90.00 5.741205 -90.00 15.18718 90.000
6.28000000 10.09090 90.003 5.760609 -90.00 5.760609 -90.00 15.23712 90.000
6.30000000 10.12404 90.003 5.780023 -90.00 5.780023 -90.00 15.28706 90.000
6.32000000 10.15718 90.003 5.799447 -90.00 5.799447 -90.00 15.33703 90.000
6.34000000 10.19033 90.003 5.818882 -90.00 5.818882 -90.00 15.38700 90.000
6.36000000 10.22349 90.003 5.838327 -90.00 5.838327 -90.00 15.43699 90.000
6.38000000 10.25667 90.003 5.857783 -90.00 5.857783 -90.00 15.48700 90.000
6.40000000 10.28985 90.003 5.877249 -90.00 5.877249 -90.00 15.53702 90.000
6.42000000 10.32304 90.003 5.896726 -90.00 5.896726 -90.00 15.58705 90.000
6.44000000 10.35624 90.003 5.916214 -90.00 5.916214 -90.00 15.63710 90.000
6.46000000 10.38946 90.003 5.935713 -90.00 5.935713 -90.00 15.68717 90.000
6.48000000 10.42268 90.003 5.955222 -90.00 5.955222 -90.00 15.73724 90.000
6.50000000 10.45591 90.002 5.974742 -90.00 5.974742 -90.00 15.78734 90.000
6.52000000 10.48916 90.002 5.994273 -90.00 5.994273 -90.00 15.83744 90.000
6.54000000 10.52241 90.002 6.013815 -90.00 6.013815 -90.00 15.88757 90.000
6.56000000 10.55568 90.002 6.033368 -90.00 6.033368 -90.00 15.93770 90.000
6.58000000 10.58895 90.002 6.052932 -90.00 6.052932 -90.00 15.98786 90.000
6.60000000 10.62224 90.002 6.072506 -90.00 6.072506 -90.00 16.03802 90.000
6.62000000 10.65554 90.002 6.092092 -90.00 6.092092 -90.00 16.08820 90.000
6.64000000 10.68884 90.002 6.111689 -90.00 6.111689 -90.00 16.13840 90.000
6.66000000 10.72216 90.002 6.131297 -90.00 6.131297 -90.00 16.18861 90.000
6.68000000 10.75549 90.002 6.150916 -90.00 6.150916 -90.00 16.23884 90.000
6.70000000 10.78883 90.002 6.170546 -90.00 6.170546 -90.00 16.28908 90.000
6.72000000 10.82218 90.002 6.190187 -90.00 6.190187 -90.00 16.33934 90.000
6.74000000 10.85554 90.001 6.209840 -90.00 6.209840 -90.00 16.38962 90.000
6.76000000 10.88891 90.001 6.229504 -90.00 6.229504 -90.00 16.43991 90.000
6.78000000 10.92229 90.001 6.249179 -90.00 6.249179 -90.00 16.49021 90.000
6.80000000 10.95569 90.001 6.268866 -90.00 6.268866 -90.00 16.54053 90.000
6.82000000 10.98909 90.001 6.288564 -90.00 6.288564 -90.00 16.59087 90.000
6.84000000 11.02251 90.001 6.308273 -90.00 6.308273 -90.00 16.64122 90.000
6.86000000 11.05593 90.001 6.327994 -90.00 6.327994 -90.00 16.69158 90.000
6.88000000 11.08937 90.001 6.347726 -90.00 6.347726 -90.00 16.74197 90.000
6.90000000 11.12282 90.001 6.367470 -90.00 6.367470 -90.00 16.79237 90.000
6.92000000 11.15628 90.000 6.387226 -90.00 6.387226 -90.00 16.84278 90.000
6.94000000 11.18975 90.000 6.406993 -90.00 6.406993 -90.00 16.89321 90.000
6.96000000 11.22323 90.000 6.426772 -90.00 6.426772 -90.00 16.94366 90.000
6.98000000 11.25672 90.000 6.446563 -90.00 6.446563 -90.00 16.99412 90.000
7.00000000 11.29023 90.000 6.466365 -90.00 6.466365 -90.00 17.04460 90.000
!< P1 F=7.0 Eeff=(5.67086353 -5.1694e-6) Z0=(64.0046558 2.91768e-5) R=0.07499568 C=2.80679e-4 
!< P2 F=7.0 Eeff=(1.03068884 0.0) Z0=(108.149019 0.0) R=0.0 C=6.72519e-5 
