! Sonnet Data File
! From: em Version : 14.52
! From Project: readout
! Data is De-embedded 
! Data File Written: 06/17/2017 20:39:39
!< HDATE 05/30/2017 22:45:08
!< MDATE 06/17/2017 19:46:36
# GHZ S MA R 50.00000
6.40000000 0.010309 75.979 0.999947 -15.41 0.999947 -15.41 0.010309 73.196
!< P1 F=6.4 Eeff=(5.67079515 -5.6695e-6) Z0=(51.4985264 -2.5749e-5) R=0.0 C=0.0029802 
!< P2 F=6.4 Eeff=(5.67079515 -5.6695e-6) Z0=(51.4985264 -2.5749e-5) R=0.0 C=0.0029802 
6.40020000 0.010309 75.980 0.999947 -15.41 0.999947 -15.41 0.010309 73.194
6.40040000 0.010310 75.982 0.999947 -15.41 0.999947 -15.41 0.010310 73.192
6.40060000 0.010310 75.983 0.999947 -15.41 0.999947 -15.41 0.010310 73.190
6.40080000 0.010310 75.984 0.999947 -15.41 0.999947 -15.41 0.010310 73.187
6.40100000 0.010310 75.985 0.999947 -15.41 0.999947 -15.41 0.010310 73.185
6.40120000 0.010310 75.986 0.999947 -15.41 0.999947 -15.41 0.010310 73.183
6.40140000 0.010310 75.988 0.999947 -15.42 0.999947 -15.42 0.010310 73.181
6.40160000 0.010310 75.989 0.999947 -15.42 0.999947 -15.42 0.010310 73.178
6.40180000 0.010310 75.990 0.999947 -15.42 0.999947 -15.42 0.010310 73.176
6.40200000 0.010311 75.991 0.999947 -15.42 0.999947 -15.42 0.010311 73.174
6.40220000 0.010311 75.993 0.999947 -15.42 0.999947 -15.42 0.010311 73.172
6.40240000 0.010311 75.994 0.999947 -15.42 0.999947 -15.42 0.010311 73.170
6.40260000 0.010311 75.995 0.999947 -15.42 0.999947 -15.42 0.010311 73.167
6.40280000 0.010311 75.996 0.999947 -15.42 0.999947 -15.42 0.010311 73.165
6.40300000 0.010311 75.997 0.999947 -15.42 0.999947 -15.42 0.010311 73.163
6.40320000 0.010311 75.999 0.999947 -15.42 0.999947 -15.42 0.010311 73.161
6.40340000 0.010312 76.000 0.999947 -15.42 0.999947 -15.42 0.010312 73.158
6.40360000 0.010312 76.001 0.999947 -15.42 0.999947 -15.42 0.010312 73.156
6.40380000 0.010312 76.002 0.999947 -15.42 0.999947 -15.42 0.010312 73.154
6.40400000 0.010312 76.004 0.999947 -15.42 0.999947 -15.42 0.010312 73.152
6.40420000 0.010312 76.005 0.999947 -15.42 0.999947 -15.42 0.010312 73.149
6.40440000 0.010312 76.006 0.999947 -15.42 0.999947 -15.42 0.010312 73.147
6.40460000 0.010312 76.007 0.999947 -15.42 0.999947 -15.42 0.010312 73.145
6.40480000 0.010312 76.009 0.999947 -15.42 0.999947 -15.42 0.010312 73.143
6.40500000 0.010313 76.010 0.999947 -15.42 0.999947 -15.42 0.010313 73.140
6.40520000 0.010313 76.011 0.999947 -15.42 0.999947 -15.42 0.010313 73.138
6.40540000 0.010313 76.012 0.999947 -15.43 0.999947 -15.43 0.010313 73.136
6.40560000 0.010313 76.014 0.999947 -15.43 0.999947 -15.43 0.010313 73.134
6.40580000 0.010313 76.015 0.999947 -15.43 0.999947 -15.43 0.010313 73.131
6.40600000 0.010313 76.016 0.999947 -15.43 0.999947 -15.43 0.010313 73.129
6.40620000 0.010313 76.017 0.999947 -15.43 0.999947 -15.43 0.010313 73.127
6.40640000 0.010314 76.019 0.999947 -15.43 0.999947 -15.43 0.010314 73.124
6.40660000 0.010314 76.020 0.999947 -15.43 0.999947 -15.43 0.010314 73.122
6.40680000 0.010314 76.021 0.999947 -15.43 0.999947 -15.43 0.010314 73.120
6.40700000 0.010314 76.023 0.999947 -15.43 0.999947 -15.43 0.010314 73.118
6.40720000 0.010314 76.024 0.999947 -15.43 0.999947 -15.43 0.010314 73.115
6.40740000 0.010314 76.025 0.999947 -15.43 0.999947 -15.43 0.010314 73.113
6.40760000 0.010314 76.026 0.999947 -15.43 0.999947 -15.43 0.010314 73.111
6.40780000 0.010314 76.028 0.999947 -15.43 0.999947 -15.43 0.010314 73.109
6.40800000 0.010315 76.029 0.999947 -15.43 0.999947 -15.43 0.010315 73.106
6.40820000 0.010315 76.030 0.999947 -15.43 0.999947 -15.43 0.010315 73.104
6.40840000 0.010315 76.031 0.999947 -15.43 0.999947 -15.43 0.010315 73.102
6.40860000 0.010315 76.033 0.999947 -15.43 0.999947 -15.43 0.010315 73.099
6.40880000 0.010315 76.034 0.999947 -15.43 0.999947 -15.43 0.010315 73.097
6.40900000 0.010315 76.035 0.999947 -15.43 0.999947 -15.43 0.010315 73.095
6.40920000 0.010315 76.037 0.999947 -15.43 0.999947 -15.43 0.010315 73.092
6.40940000 0.010315 76.038 0.999947 -15.44 0.999947 -15.44 0.010315 73.090
6.40960000 0.010316 76.039 0.999947 -15.44 0.999947 -15.44 0.010316 73.088
6.40980000 0.010316 76.041 0.999947 -15.44 0.999947 -15.44 0.010316 73.086
6.41000000 0.010316 76.042 0.999947 -15.44 0.999947 -15.44 0.010316 73.083
6.41020000 0.010316 76.043 0.999947 -15.44 0.999947 -15.44 0.010316 73.081
6.41040000 0.010316 76.044 0.999947 -15.44 0.999947 -15.44 0.010316 73.079
6.41060000 0.010316 76.046 0.999947 -15.44 0.999947 -15.44 0.010316 73.076
6.41080000 0.010316 76.047 0.999947 -15.44 0.999947 -15.44 0.010316 73.074
6.41100000 0.010316 76.048 0.999947 -15.44 0.999947 -15.44 0.010316 73.072
6.41120000 0.010317 76.050 0.999947 -15.44 0.999947 -15.44 0.010317 73.069
6.41140000 0.010317 76.051 0.999947 -15.44 0.999947 -15.44 0.010317 73.067
6.41160000 0.010317 76.052 0.999947 -15.44 0.999947 -15.44 0.010317 73.065
6.41180000 0.010317 76.054 0.999947 -15.44 0.999947 -15.44 0.010317 73.062
6.41200000 0.010317 76.055 0.999947 -15.44 0.999947 -15.44 0.010317 73.060
6.41220000 0.010317 76.056 0.999947 -15.44 0.999947 -15.44 0.010317 73.058
6.41240000 0.010317 76.058 0.999947 -15.44 0.999947 -15.44 0.010317 73.055
6.41260000 0.010317 76.059 0.999947 -15.44 0.999947 -15.44 0.010317 73.053
6.41280000 0.010318 76.060 0.999947 -15.44 0.999947 -15.44 0.010318 73.051
6.41300000 0.010318 76.062 0.999947 -15.44 0.999947 -15.44 0.010318 73.048
6.41320000 0.010318 76.063 0.999947 -15.44 0.999947 -15.44 0.010318 73.046
6.41340000 0.010318 76.064 0.999947 -15.45 0.999947 -15.45 0.010318 73.044
6.41360000 0.010318 76.066 0.999947 -15.45 0.999947 -15.45 0.010318 73.041
6.41380000 0.010318 76.067 0.999947 -15.45 0.999947 -15.45 0.010318 73.039
6.41400000 0.010318 76.068 0.999947 -15.45 0.999947 -15.45 0.010318 73.037
6.41420000 0.010318 76.070 0.999947 -15.45 0.999947 -15.45 0.010318 73.034
6.41440000 0.010319 76.071 0.999947 -15.45 0.999947 -15.45 0.010319 73.032
6.41460000 0.010319 76.072 0.999947 -15.45 0.999947 -15.45 0.010319 73.030
6.41480000 0.010319 76.074 0.999947 -15.45 0.999947 -15.45 0.010319 73.027
6.41500000 0.010319 76.075 0.999947 -15.45 0.999947 -15.45 0.010319 73.025
6.41520000 0.010319 76.076 0.999947 -15.45 0.999947 -15.45 0.010319 73.022
6.41540000 0.010319 76.078 0.999947 -15.45 0.999947 -15.45 0.010319 73.020
6.41560000 0.010319 76.079 0.999947 -15.45 0.999947 -15.45 0.010319 73.018
6.41580000 0.010319 76.080 0.999947 -15.45 0.999947 -15.45 0.010319 73.015
6.41600000 0.010319 76.082 0.999947 -15.45 0.999947 -15.45 0.010319 73.013
6.41620000 0.010320 76.083 0.999947 -15.45 0.999947 -15.45 0.010320 73.011
6.41640000 0.010320 76.085 0.999947 -15.45 0.999947 -15.45 0.010320 73.008
6.41660000 0.010320 76.086 0.999947 -15.45 0.999947 -15.45 0.010320 73.006
6.41680000 0.010320 76.087 0.999947 -15.45 0.999947 -15.45 0.010320 73.003
6.41700000 0.010320 76.089 0.999947 -15.45 0.999947 -15.45 0.010320 73.001
6.41720000 0.010320 76.090 0.999947 -15.45 0.999947 -15.45 0.010320 72.999
6.41740000 0.010320 76.091 0.999947 -15.46 0.999947 -15.46 0.010320 72.996
6.41760000 0.010320 76.093 0.999947 -15.46 0.999947 -15.46 0.010320 72.994
6.41780000 0.010321 76.094 0.999947 -15.46 0.999947 -15.46 0.010321 72.991
6.41800000 0.010321 76.096 0.999947 -15.46 0.999947 -15.46 0.010321 72.989
6.41820000 0.010321 76.097 0.999947 -15.46 0.999947 -15.46 0.010321 72.987
6.41840000 0.010321 76.098 0.999947 -15.46 0.999947 -15.46 0.010321 72.984
6.41860000 0.010321 76.100 0.999947 -15.46 0.999947 -15.46 0.010321 72.982
6.41880000 0.010321 76.101 0.999947 -15.46 0.999947 -15.46 0.010321 72.979
6.41900000 0.010321 76.103 0.999947 -15.46 0.999947 -15.46 0.010321 72.977
6.41920000 0.010321 76.104 0.999947 -15.46 0.999947 -15.46 0.010321 72.975
6.41940000 0.010321 76.105 0.999947 -15.46 0.999947 -15.46 0.010321 72.972
6.41960000 0.010322 76.107 0.999947 -15.46 0.999947 -15.46 0.010322 72.970
6.41980000 0.010322 76.108 0.999947 -15.46 0.999947 -15.46 0.010322 72.967
6.42000000 0.010322 76.110 0.999947 -15.46 0.999947 -15.46 0.010322 72.965
6.42020000 0.010322 76.111 0.999947 -15.46 0.999947 -15.46 0.010322 72.963
6.42040000 0.010322 76.112 0.999947 -15.46 0.999947 -15.46 0.010322 72.960
6.42060000 0.010322 76.114 0.999947 -15.46 0.999947 -15.46 0.010322 72.958
6.42080000 0.010322 76.115 0.999947 -15.46 0.999947 -15.46 0.010322 72.955
6.42100000 0.010322 76.117 0.999947 -15.46 0.999947 -15.46 0.010322 72.953
6.42120000 0.010323 76.118 0.999947 -15.46 0.999947 -15.46 0.010323 72.950
6.42140000 0.010323 76.119 0.999947 -15.47 0.999947 -15.47 0.010323 72.948
6.42160000 0.010323 76.121 0.999947 -15.47 0.999947 -15.47 0.010323 72.946
6.42180000 0.010323 76.122 0.999947 -15.47 0.999947 -15.47 0.010323 72.943
6.42200000 0.010323 76.124 0.999947 -15.47 0.999947 -15.47 0.010323 72.941
6.42220000 0.010323 76.125 0.999947 -15.47 0.999947 -15.47 0.010323 72.938
6.42240000 0.010323 76.127 0.999947 -15.47 0.999947 -15.47 0.010323 72.936
6.42260000 0.010323 76.128 0.999947 -15.47 0.999947 -15.47 0.010323 72.933
6.42280000 0.010323 76.129 0.999947 -15.47 0.999947 -15.47 0.010323 72.931
6.42300000 0.010324 76.131 0.999947 -15.47 0.999947 -15.47 0.010324 72.928
6.42320000 0.010324 76.132 0.999947 -15.47 0.999947 -15.47 0.010324 72.926
6.42340000 0.010324 76.134 0.999947 -15.47 0.999947 -15.47 0.010324 72.924
6.42360000 0.010324 76.135 0.999947 -15.47 0.999947 -15.47 0.010324 72.921
6.42380000 0.010324 76.137 0.999947 -15.47 0.999947 -15.47 0.010324 72.919
6.42400000 0.010324 76.138 0.999947 -15.47 0.999947 -15.47 0.010324 72.916
6.42420000 0.010324 76.140 0.999947 -15.47 0.999947 -15.47 0.010324 72.914
6.42440000 0.010324 76.141 0.999947 -15.47 0.999947 -15.47 0.010324 72.911
6.42460000 0.010324 76.143 0.999947 -15.47 0.999947 -15.47 0.010324 72.909
6.42480000 0.010325 76.144 0.999947 -15.47 0.999947 -15.47 0.010325 72.906
6.42500000 0.010325 76.145 0.999947 -15.47 0.999947 -15.47 0.010325 72.904
6.42520000 0.010325 76.147 0.999947 -15.48 0.999947 -15.48 0.010325 72.901
6.42540000 0.010325 76.148 0.999947 -15.48 0.999947 -15.48 0.010325 72.899
6.42560000 0.010325 76.150 0.999947 -15.48 0.999947 -15.48 0.010325 72.896
6.42580000 0.010325 76.151 0.999947 -15.48 0.999947 -15.48 0.010325 72.894
6.42600000 0.010325 76.153 0.999947 -15.48 0.999947 -15.48 0.010325 72.891
6.42620000 0.010325 76.154 0.999947 -15.48 0.999947 -15.48 0.010325 72.889
6.42640000 0.010325 76.156 0.999947 -15.48 0.999947 -15.48 0.010325 72.886
6.42660000 0.010325 76.157 0.999947 -15.48 0.999947 -15.48 0.010325 72.884
6.42680000 0.010326 76.159 0.999947 -15.48 0.999947 -15.48 0.010326 72.881
6.42700000 0.010326 76.160 0.999947 -15.48 0.999947 -15.48 0.010326 72.879
6.42720000 0.010326 76.162 0.999947 -15.48 0.999947 -15.48 0.010326 72.876
6.42740000 0.010326 76.163 0.999947 -15.48 0.999947 -15.48 0.010326 72.874
6.42760000 0.010326 76.165 0.999947 -15.48 0.999947 -15.48 0.010326 72.871
6.42780000 0.010326 76.166 0.999947 -15.48 0.999947 -15.48 0.010326 72.869
6.42800000 0.010326 76.168 0.999947 -15.48 0.999947 -15.48 0.010326 72.866
6.42820000 0.010326 76.169 0.999947 -15.48 0.999947 -15.48 0.010326 72.864
6.42840000 0.010326 76.171 0.999947 -15.48 0.999947 -15.48 0.010326 72.861
6.42860000 0.010327 76.172 0.999947 -15.48 0.999947 -15.48 0.010327 72.859
6.42880000 0.010327 76.174 0.999947 -15.48 0.999947 -15.48 0.010327 72.856
6.42900000 0.010327 76.175 0.999947 -15.48 0.999947 -15.48 0.010327 72.854
6.42920000 0.010327 76.177 0.999947 -15.49 0.999947 -15.49 0.010327 72.851
6.42940000 0.010327 76.178 0.999947 -15.49 0.999947 -15.49 0.010327 72.849
6.42960000 0.010327 76.180 0.999947 -15.49 0.999947 -15.49 0.010327 72.846
6.42980000 0.010327 76.181 0.999947 -15.49 0.999947 -15.49 0.010327 72.844
6.43000000 0.010327 76.183 0.999947 -15.49 0.999947 -15.49 0.010327 72.841
6.43020000 0.010327 76.184 0.999947 -15.49 0.999947 -15.49 0.010327 72.839
6.43040000 0.010327 76.186 0.999947 -15.49 0.999947 -15.49 0.010327 72.836
6.43060000 0.010328 76.187 0.999947 -15.49 0.999947 -15.49 0.010328 72.834
6.43080000 0.010328 76.189 0.999947 -15.49 0.999947 -15.49 0.010328 72.831
6.43100000 0.010328 76.190 0.999947 -15.49 0.999947 -15.49 0.010328 72.828
6.43120000 0.010328 76.192 0.999947 -15.49 0.999947 -15.49 0.010328 72.826
6.43140000 0.010328 76.193 0.999947 -15.49 0.999947 -15.49 0.010328 72.823
6.43160000 0.010328 76.195 0.999947 -15.49 0.999947 -15.49 0.010328 72.821
6.43180000 0.010328 76.197 0.999947 -15.49 0.999947 -15.49 0.010328 72.818
6.43200000 0.010328 76.198 0.999947 -15.49 0.999947 -15.49 0.010328 72.816
6.43220000 0.010328 76.200 0.999947 -15.49 0.999947 -15.49 0.010328 72.813
6.43240000 0.010329 76.201 0.999947 -15.49 0.999947 -15.49 0.010329 72.811
6.43260000 0.010329 76.203 0.999947 -15.49 0.999947 -15.49 0.010329 72.808
6.43280000 0.010329 76.204 0.999947 -15.49 0.999947 -15.49 0.010329 72.805
6.43300000 0.010329 76.206 0.999947 -15.49 0.999947 -15.49 0.010329 72.803
6.43320000 0.010329 76.207 0.999947 -15.50 0.999947 -15.50 0.010329 72.800
6.43340000 0.010329 76.209 0.999947 -15.50 0.999947 -15.50 0.010329 72.798
6.43360000 0.010329 76.211 0.999947 -15.50 0.999947 -15.50 0.010329 72.795
6.43380000 0.010329 76.212 0.999947 -15.50 0.999947 -15.50 0.010329 72.792
6.43400000 0.010329 76.214 0.999947 -15.50 0.999947 -15.50 0.010329 72.790
6.43420000 0.010329 76.215 0.999947 -15.50 0.999947 -15.50 0.010329 72.787
6.43440000 0.010330 76.217 0.999947 -15.50 0.999947 -15.50 0.010330 72.785
6.43460000 0.010330 76.218 0.999947 -15.50 0.999947 -15.50 0.010330 72.782
6.43480000 0.010330 76.220 0.999947 -15.50 0.999947 -15.50 0.010330 72.780
6.43500000 0.010330 76.222 0.999947 -15.50 0.999947 -15.50 0.010330 72.777
6.43520000 0.010330 76.223 0.999947 -15.50 0.999947 -15.50 0.010330 72.774
6.43540000 0.010330 76.225 0.999947 -15.50 0.999947 -15.50 0.010330 72.772
6.43560000 0.010330 76.226 0.999947 -15.50 0.999947 -15.50 0.010330 72.769
6.43580000 0.010330 76.228 0.999947 -15.50 0.999947 -15.50 0.010330 72.767
6.43600000 0.010330 76.230 0.999947 -15.50 0.999947 -15.50 0.010330 72.764
6.43620000 0.010330 76.231 0.999947 -15.50 0.999947 -15.50 0.010330 72.761
6.43640000 0.010330 76.233 0.999946 -15.50 0.999946 -15.50 0.010330 72.759
6.43660000 0.010331 76.234 0.999946 -15.50 0.999946 -15.50 0.010331 72.756
6.43680000 0.010331 76.236 0.999946 -15.50 0.999946 -15.50 0.010331 72.753
6.43700000 0.010331 76.238 0.999946 -15.51 0.999946 -15.51 0.010331 72.751
6.43720000 0.010331 76.239 0.999946 -15.51 0.999946 -15.51 0.010331 72.748
6.43740000 0.010331 76.241 0.999946 -15.51 0.999946 -15.51 0.010331 72.746
6.43760000 0.010331 76.242 0.999946 -15.51 0.999946 -15.51 0.010331 72.743
6.43780000 0.010331 76.244 0.999946 -15.51 0.999946 -15.51 0.010331 72.740
6.43800000 0.010331 76.246 0.999946 -15.51 0.999946 -15.51 0.010331 72.738
6.43820000 0.010331 76.247 0.999946 -15.51 0.999946 -15.51 0.010331 72.735
6.43840000 0.010331 76.249 0.999946 -15.51 0.999946 -15.51 0.010331 72.732
6.43860000 0.010332 76.251 0.999946 -15.51 0.999946 -15.51 0.010332 72.730
6.43880000 0.010332 76.252 0.999946 -15.51 0.999946 -15.51 0.010332 72.727
6.43900000 0.010332 76.254 0.999946 -15.51 0.999946 -15.51 0.010332 72.724
6.43920000 0.010332 76.255 0.999946 -15.51 0.999946 -15.51 0.010332 72.722
6.43940000 0.010332 76.257 0.999946 -15.51 0.999946 -15.51 0.010332 72.719
6.43960000 0.010332 76.259 0.999946 -15.51 0.999946 -15.51 0.010332 72.716
6.43980000 0.010332 76.260 0.999946 -15.51 0.999946 -15.51 0.010332 72.714
6.44000000 0.010332 76.262 0.999946 -15.51 0.999946 -15.51 0.010332 72.711
6.44020000 0.010332 76.264 0.999946 -15.51 0.999946 -15.51 0.010332 72.708
6.44040000 0.010332 76.265 0.999946 -15.51 0.999946 -15.51 0.010332 72.706
6.44060000 0.010332 76.267 0.999946 -15.51 0.999946 -15.51 0.010332 72.703
6.44080000 0.010333 76.269 0.999946 -15.51 0.999946 -15.51 0.010333 72.700
6.44100000 0.010333 76.270 0.999946 -15.52 0.999946 -15.52 0.010333 72.698
6.44120000 0.010333 76.272 0.999946 -15.52 0.999946 -15.52 0.010333 72.695
6.44140000 0.010333 76.274 0.999946 -15.52 0.999946 -15.52 0.010333 72.692
6.44160000 0.010333 76.275 0.999946 -15.52 0.999946 -15.52 0.010333 72.690
6.44180000 0.010333 76.277 0.999946 -15.52 0.999946 -15.52 0.010333 72.687
6.44200000 0.010333 76.279 0.999946 -15.52 0.999946 -15.52 0.010333 72.684
6.44220000 0.010333 76.280 0.999946 -15.52 0.999946 -15.52 0.010333 72.682
6.44240000 0.010333 76.282 0.999946 -15.52 0.999946 -15.52 0.010333 72.679
6.44260000 0.010333 76.284 0.999946 -15.52 0.999946 -15.52 0.010333 72.676
6.44280000 0.010333 76.285 0.999946 -15.52 0.999946 -15.52 0.010333 72.674
6.44300000 0.010334 76.287 0.999946 -15.52 0.999946 -15.52 0.010334 72.671
6.44320000 0.010334 76.289 0.999946 -15.52 0.999946 -15.52 0.010334 72.668
6.44340000 0.010334 76.290 0.999946 -15.52 0.999946 -15.52 0.010334 72.665
6.44360000 0.010334 76.292 0.999946 -15.52 0.999946 -15.52 0.010334 72.663
6.44380000 0.010334 76.294 0.999946 -15.52 0.999946 -15.52 0.010334 72.660
6.44400000 0.010334 76.296 0.999946 -15.52 0.999946 -15.52 0.010334 72.657
6.44420000 0.010334 76.297 0.999946 -15.52 0.999946 -15.52 0.010334 72.655
6.44440000 0.010334 76.299 0.999946 -15.52 0.999946 -15.52 0.010334 72.652
6.44460000 0.010334 76.301 0.999946 -15.52 0.999946 -15.52 0.010334 72.649
6.44480000 0.010334 76.302 0.999946 -15.52 0.999946 -15.52 0.010334 72.646
6.44500000 0.010334 76.304 0.999946 -15.53 0.999946 -15.53 0.010334 72.644
6.44520000 0.010334 76.306 0.999946 -15.53 0.999946 -15.53 0.010334 72.641
6.44540000 0.010335 76.308 0.999946 -15.53 0.999946 -15.53 0.010335 72.638
6.44560000 0.010335 76.309 0.999946 -15.53 0.999946 -15.53 0.010335 72.635
6.44580000 0.010335 76.311 0.999946 -15.53 0.999946 -15.53 0.010335 72.633
6.44600000 0.010335 76.313 0.999946 -15.53 0.999946 -15.53 0.010335 72.630
6.44620000 0.010335 76.314 0.999946 -15.53 0.999946 -15.53 0.010335 72.627
6.44640000 0.010335 76.316 0.999946 -15.53 0.999946 -15.53 0.010335 72.624
6.44660000 0.010335 76.318 0.999946 -15.53 0.999946 -15.53 0.010335 72.622
6.44680000 0.010335 76.320 0.999946 -15.53 0.999946 -15.53 0.010335 72.619
6.44700000 0.010335 76.321 0.999946 -15.53 0.999946 -15.53 0.010335 72.616
6.44720000 0.010335 76.323 0.999946 -15.53 0.999946 -15.53 0.010335 72.613
6.44740000 0.010335 76.325 0.999946 -15.53 0.999946 -15.53 0.010335 72.611
6.44760000 0.010335 76.327 0.999946 -15.53 0.999946 -15.53 0.010335 72.608
6.44780000 0.010336 76.328 0.999946 -15.53 0.999946 -15.53 0.010336 72.605
6.44800000 0.010336 76.330 0.999946 -15.53 0.999946 -15.53 0.010336 72.602
6.44820000 0.010336 76.332 0.999946 -15.53 0.999946 -15.53 0.010336 72.600
6.44840000 0.010336 76.334 0.999946 -15.53 0.999946 -15.53 0.010336 72.597
6.44860000 0.010336 76.335 0.999946 -15.53 0.999946 -15.53 0.010336 72.594
6.44880000 0.010336 76.337 0.999946 -15.54 0.999946 -15.54 0.010336 72.591
6.44900000 0.010336 76.339 0.999946 -15.54 0.999946 -15.54 0.010336 72.588
6.44920000 0.010336 76.341 0.999946 -15.54 0.999946 -15.54 0.010336 72.586
6.44940000 0.010336 76.343 0.999946 -15.54 0.999946 -15.54 0.010336 72.583
6.44960000 0.010336 76.344 0.999946 -15.54 0.999946 -15.54 0.010336 72.580
6.44980000 0.010336 76.346 0.999946 -15.54 0.999946 -15.54 0.010336 72.577
6.45000000 0.010336 76.348 0.999946 -15.54 0.999946 -15.54 0.010336 72.574
6.45020000 0.010336 76.350 0.999946 -15.54 0.999946 -15.54 0.010336 72.572
6.45040000 0.010337 76.351 0.999946 -15.54 0.999946 -15.54 0.010337 72.569
6.45060000 0.010337 76.353 0.999946 -15.54 0.999946 -15.54 0.010337 72.566
6.45080000 0.010337 76.355 0.999946 -15.54 0.999946 -15.54 0.010337 72.563
6.45100000 0.010337 76.357 0.999946 -15.54 0.999946 -15.54 0.010337 72.560
6.45120000 0.010337 76.359 0.999946 -15.54 0.999946 -15.54 0.010337 72.557
6.45140000 0.010337 76.360 0.999946 -15.54 0.999946 -15.54 0.010337 72.555
6.45160000 0.010337 76.362 0.999946 -15.54 0.999946 -15.54 0.010337 72.552
6.45180000 0.010337 76.364 0.999946 -15.54 0.999946 -15.54 0.010337 72.549
6.45200000 0.010337 76.366 0.999946 -15.54 0.999946 -15.54 0.010337 72.546
6.45220000 0.010337 76.368 0.999946 -15.54 0.999946 -15.54 0.010337 72.543
6.45240000 0.010337 76.370 0.999946 -15.54 0.999946 -15.54 0.010337 72.540
6.45260000 0.010337 76.371 0.999946 -15.54 0.999946 -15.54 0.010337 72.538
6.45280000 0.010337 76.373 0.999946 -15.55 0.999946 -15.55 0.010337 72.535
6.45300000 0.010338 76.375 0.999946 -15.55 0.999946 -15.55 0.010338 72.532
6.45320000 0.010338 76.377 0.999946 -15.55 0.999946 -15.55 0.010338 72.529
6.45340000 0.010338 76.379 0.999946 -15.55 0.999946 -15.55 0.010338 72.526
6.45360000 0.010338 76.381 0.999946 -15.55 0.999946 -15.55 0.010338 72.523
6.45380000 0.010338 76.382 0.999946 -15.55 0.999946 -15.55 0.010338 72.520
6.45400000 0.010338 76.384 0.999946 -15.55 0.999946 -15.55 0.010338 72.518
6.45420000 0.010338 76.386 0.999946 -15.55 0.999946 -15.55 0.010338 72.515
6.45440000 0.010338 76.388 0.999946 -15.55 0.999946 -15.55 0.010338 72.512
6.45460000 0.010338 76.390 0.999946 -15.55 0.999946 -15.55 0.010338 72.509
6.45480000 0.010338 76.392 0.999946 -15.55 0.999946 -15.55 0.010338 72.506
6.45500000 0.010338 76.393 0.999946 -15.55 0.999946 -15.55 0.010338 72.503
6.45520000 0.010338 76.395 0.999946 -15.55 0.999946 -15.55 0.010338 72.500
6.45540000 0.010338 76.397 0.999946 -15.55 0.999946 -15.55 0.010338 72.497
6.45560000 0.010338 76.399 0.999946 -15.55 0.999946 -15.55 0.010338 72.495
6.45580000 0.010339 76.401 0.999946 -15.55 0.999946 -15.55 0.010339 72.492
6.45600000 0.010339 76.403 0.999946 -15.55 0.999946 -15.55 0.010339 72.489
6.45620000 0.010339 76.405 0.999946 -15.55 0.999946 -15.55 0.010339 72.486
6.45640000 0.010339 76.407 0.999946 -15.55 0.999946 -15.55 0.010339 72.483
6.45660000 0.010339 76.408 0.999946 -15.55 0.999946 -15.55 0.010339 72.480
6.45680000 0.010339 76.410 0.999946 -15.56 0.999946 -15.56 0.010339 72.477
6.45700000 0.010339 76.412 0.999946 -15.56 0.999946 -15.56 0.010339 72.474
6.45720000 0.010339 76.414 0.999946 -15.56 0.999946 -15.56 0.010339 72.471
6.45740000 0.010339 76.416 0.999946 -15.56 0.999946 -15.56 0.010339 72.468
6.45760000 0.010339 76.418 0.999946 -15.56 0.999946 -15.56 0.010339 72.466
6.45780000 0.010339 76.420 0.999946 -15.56 0.999946 -15.56 0.010339 72.463
6.45800000 0.010339 76.422 0.999946 -15.56 0.999946 -15.56 0.010339 72.460
6.45820000 0.010339 76.424 0.999946 -15.56 0.999946 -15.56 0.010339 72.457
6.45840000 0.010339 76.426 0.999946 -15.56 0.999946 -15.56 0.010339 72.454
6.45860000 0.010339 76.427 0.999946 -15.56 0.999946 -15.56 0.010340 72.451
6.45880000 0.010340 76.429 0.999946 -15.56 0.999946 -15.56 0.010340 72.448
6.45900000 0.010340 76.431 0.999946 -15.56 0.999946 -15.56 0.010340 72.445
6.45920000 0.010340 76.433 0.999946 -15.56 0.999946 -15.56 0.010340 72.442
6.45940000 0.010340 76.435 0.999946 -15.56 0.999946 -15.56 0.010340 72.439
6.45960000 0.010340 76.437 0.999946 -15.56 0.999946 -15.56 0.010340 72.436
6.45980000 0.010340 76.439 0.999946 -15.56 0.999946 -15.56 0.010340 72.433
6.46000000 0.010340 76.441 0.999946 -15.56 0.999946 -15.56 0.010340 72.430
6.46020000 0.010340 76.443 0.999946 -15.56 0.999946 -15.56 0.010340 72.427
6.46040000 0.010340 76.445 0.999946 -15.56 0.999946 -15.56 0.010340 72.424
6.46060000 0.010340 76.447 0.999946 -15.57 0.999946 -15.57 0.010340 72.421
6.46080000 0.010340 76.449 0.999946 -15.57 0.999946 -15.57 0.010340 72.418
6.46100000 0.010340 76.451 0.999946 -15.57 0.999946 -15.57 0.010340 72.415
6.46120000 0.010340 76.453 0.999946 -15.57 0.999946 -15.57 0.010340 72.412
6.46140000 0.010340 76.455 0.999946 -15.57 0.999946 -15.57 0.010340 72.409
6.46160000 0.010340 76.457 0.999946 -15.57 0.999946 -15.57 0.010340 72.406
6.46180000 0.010341 76.458 0.999946 -15.57 0.999946 -15.57 0.010341 72.403
6.46200000 0.010341 76.460 0.999946 -15.57 0.999946 -15.57 0.010341 72.400
6.46220000 0.010341 76.462 0.999946 -15.57 0.999946 -15.57 0.010341 72.397
6.46240000 0.010341 76.464 0.999946 -15.57 0.999946 -15.57 0.010341 72.394
6.46260000 0.010341 76.466 0.999946 -15.57 0.999946 -15.57 0.010341 72.391
6.46280000 0.010341 76.468 0.999946 -15.57 0.999946 -15.57 0.010341 72.388
6.46300000 0.010341 76.470 0.999946 -15.57 0.999946 -15.57 0.010341 72.385
6.46320000 0.010341 76.472 0.999946 -15.57 0.999946 -15.57 0.010341 72.382
6.46340000 0.010341 76.474 0.999946 -15.57 0.999946 -15.57 0.010341 72.379
6.46360000 0.010341 76.476 0.999946 -15.57 0.999946 -15.57 0.010341 72.376
6.46380000 0.010341 76.478 0.999946 -15.57 0.999946 -15.57 0.010341 72.373
6.46400000 0.010341 76.480 0.999946 -15.57 0.999946 -15.57 0.010341 72.370
6.46420000 0.010341 76.482 0.999946 -15.57 0.999946 -15.57 0.010341 72.367
6.46440000 0.010341 76.484 0.999946 -15.57 0.999946 -15.57 0.010341 72.364
6.46460000 0.010341 76.486 0.999946 -15.58 0.999946 -15.58 0.010341 72.361
6.46480000 0.010341 76.488 0.999946 -15.58 0.999946 -15.58 0.010341 72.358
6.46500000 0.010341 76.490 0.999946 -15.58 0.999946 -15.58 0.010341 72.355
6.46520000 0.010342 76.492 0.999946 -15.58 0.999946 -15.58 0.010342 72.352
6.46540000 0.010342 76.494 0.999946 -15.58 0.999946 -15.58 0.010342 72.349
6.46560000 0.010342 76.496 0.999946 -15.58 0.999946 -15.58 0.010342 72.346
6.46580000 0.010342 76.498 0.999946 -15.58 0.999946 -15.58 0.010342 72.343
6.46600000 0.010342 76.501 0.999946 -15.58 0.999946 -15.58 0.010342 72.340
6.46620000 0.010342 76.503 0.999946 -15.58 0.999946 -15.58 0.010342 72.337
6.46640000 0.010342 76.505 0.999946 -15.58 0.999946 -15.58 0.010342 72.334
6.46660000 0.010342 76.507 0.999946 -15.58 0.999946 -15.58 0.010342 72.331
6.46680000 0.010342 76.509 0.999946 -15.58 0.999946 -15.58 0.010342 72.328
6.46700000 0.010342 76.511 0.999946 -15.58 0.999946 -15.58 0.010342 72.325
6.46720000 0.010342 76.513 0.999946 -15.58 0.999946 -15.58 0.010342 72.321
6.46740000 0.010342 76.515 0.999946 -15.58 0.999946 -15.58 0.010342 72.318
6.46760000 0.010342 76.517 0.999946 -15.58 0.999946 -15.58 0.010342 72.315
6.46780000 0.010342 76.519 0.999946 -15.58 0.999946 -15.58 0.010342 72.312
6.46800000 0.010342 76.521 0.999946 -15.58 0.999946 -15.58 0.010342 72.309
6.46820000 0.010342 76.523 0.999946 -15.58 0.999946 -15.58 0.010342 72.306
6.46840000 0.010342 76.525 0.999946 -15.59 0.999946 -15.59 0.010342 72.303
6.46860000 0.010342 76.527 0.999946 -15.59 0.999946 -15.59 0.010342 72.300
6.46880000 0.010342 76.529 0.999946 -15.59 0.999946 -15.59 0.010342 72.297
6.46900000 0.010343 76.531 0.999946 -15.59 0.999946 -15.59 0.010343 72.294
6.46920000 0.010343 76.534 0.999946 -15.59 0.999946 -15.59 0.010343 72.290
6.46940000 0.010343 76.536 0.999946 -15.59 0.999946 -15.59 0.010343 72.287
6.46960000 0.010343 76.538 0.999946 -15.59 0.999946 -15.59 0.010343 72.284
6.46980000 0.010343 76.540 0.999946 -15.59 0.999946 -15.59 0.010343 72.281
6.47000000 0.010343 76.542 0.999946 -15.59 0.999946 -15.59 0.010343 72.278
6.47020000 0.010343 76.544 0.999946 -15.59 0.999946 -15.59 0.010343 72.275
6.47040000 0.010343 76.546 0.999946 -15.59 0.999946 -15.59 0.010343 72.272
6.47060000 0.010343 76.548 0.999946 -15.59 0.999946 -15.59 0.010343 72.269
6.47080000 0.010343 76.550 0.999946 -15.59 0.999946 -15.59 0.010343 72.265
6.47100000 0.010343 76.552 0.999946 -15.59 0.999946 -15.59 0.010343 72.262
6.47120000 0.010343 76.555 0.999946 -15.59 0.999946 -15.59 0.010343 72.259
6.47140000 0.010343 76.557 0.999946 -15.59 0.999946 -15.59 0.010343 72.256
6.47160000 0.010343 76.559 0.999946 -15.59 0.999946 -15.59 0.010343 72.253
6.47180000 0.010343 76.561 0.999946 -15.59 0.999946 -15.59 0.010343 72.250
6.47200000 0.010343 76.563 0.999946 -15.59 0.999946 -15.59 0.010343 72.246
6.47220000 0.010343 76.565 0.999946 -15.59 0.999946 -15.59 0.010343 72.243
6.47240000 0.010343 76.567 0.999946 -15.60 0.999946 -15.60 0.010343 72.240
6.47260000 0.010343 76.570 0.999946 -15.60 0.999946 -15.60 0.010343 72.237
6.47280000 0.010343 76.572 0.999946 -15.60 0.999946 -15.60 0.010343 72.234
6.47300000 0.010343 76.574 0.999946 -15.60 0.999946 -15.60 0.010343 72.231
6.47320000 0.010343 76.576 0.999946 -15.60 0.999946 -15.60 0.010343 72.227
6.47340000 0.010344 76.578 0.999946 -15.60 0.999946 -15.60 0.010344 72.224
6.47360000 0.010344 76.580 0.999946 -15.60 0.999946 -15.60 0.010344 72.221
6.47380000 0.010344 76.582 0.999946 -15.60 0.999946 -15.60 0.010344 72.218
6.47400000 0.010344 76.585 0.999946 -15.60 0.999946 -15.60 0.010344 72.215
6.47420000 0.010344 76.587 0.999946 -15.60 0.999946 -15.60 0.010344 72.211
6.47440000 0.010344 76.589 0.999946 -15.60 0.999946 -15.60 0.010344 72.208
6.47460000 0.010344 76.591 0.999946 -15.60 0.999946 -15.60 0.010344 72.205
6.47480000 0.010344 76.593 0.999946 -15.60 0.999946 -15.60 0.010344 72.202
6.47500000 0.010344 76.596 0.999946 -15.60 0.999946 -15.60 0.010344 72.199
6.47520000 0.010344 76.598 0.999946 -15.60 0.999946 -15.60 0.010344 72.195
6.47540000 0.010344 76.600 0.999946 -15.60 0.999946 -15.60 0.010344 72.192
6.47560000 0.010344 76.602 0.999946 -15.60 0.999946 -15.60 0.010344 72.189
6.47580000 0.010344 76.604 0.999946 -15.60 0.999946 -15.60 0.010344 72.186
6.47600000 0.010344 76.607 0.999946 -15.60 0.999946 -15.60 0.010344 72.182
6.47620000 0.010344 76.609 0.999946 -15.61 0.999946 -15.61 0.010344 72.179
6.47640000 0.010344 76.611 0.999946 -15.61 0.999946 -15.61 0.010344 72.176
6.47660000 0.010344 76.613 0.999946 -15.61 0.999946 -15.61 0.010344 72.173
6.47680000 0.010344 76.615 0.999946 -15.61 0.999946 -15.61 0.010344 72.169
6.47700000 0.010344 76.618 0.999946 -15.61 0.999946 -15.61 0.010344 72.166
6.47720000 0.010344 76.620 0.999946 -15.61 0.999946 -15.61 0.010344 72.163
6.47740000 0.010344 76.622 0.999946 -15.61 0.999946 -15.61 0.010344 72.160
6.47760000 0.010344 76.624 0.999946 -15.61 0.999946 -15.61 0.010344 72.156
6.47780000 0.010344 76.627 0.999946 -15.61 0.999946 -15.61 0.010344 72.153
6.47800000 0.010344 76.629 0.999946 -15.61 0.999946 -15.61 0.010344 72.150
6.47820000 0.010344 76.631 0.999946 -15.61 0.999946 -15.61 0.010344 72.147
6.47840000 0.010344 76.633 0.999946 -15.61 0.999946 -15.61 0.010344 72.143
6.47860000 0.010345 76.636 0.999946 -15.61 0.999946 -15.61 0.010345 72.140