! Sonnet Data File
! From: em Version : 14.52
! From Project: RO_1
! Data is De-embedded 
! Data File Written: 01/08/2019 21:02:42
!< HDATE 01/08/2019 00:45:15
!< MDATE 01/08/2019 20:28:25
# GHZ S MA R 50.00000
6.00000000 0.009388 79.247 0.999956 -12.15 0.999956 -12.15 0.009388 76.449
!< P1 F=6.0 Eeff=(5.67080918 -5.1691e-6) Z0=(51.6560295 2.35492e-5) R=0.01071313 C=0.0022568 
!< P2 F=6.0 Eeff=(5.67080918 -5.1691e-6) Z0=(51.6560295 2.35492e-5) R=0.01071313 C=0.0022568 
6.00250000 0.009394 79.243 0.999956 -12.16 0.999956 -12.16 0.009394 76.443
6.00500000 0.009399 79.239 0.999956 -12.16 0.999956 -12.16 0.009399 76.436
6.00750000 0.009404 79.235 0.999956 -12.17 0.999956 -12.17 0.009404 76.430
6.01000000 0.009409 79.231 0.999956 -12.17 0.999956 -12.17 0.009409 76.424
6.01250000 0.009415 79.227 0.999956 -12.18 0.999956 -12.18 0.009415 76.417
6.01500000 0.009420 79.223 0.999956 -12.18 0.999956 -12.18 0.009420 76.411
6.01750000 0.009425 79.220 0.999955 -12.19 0.999955 -12.19 0.009425 76.405
6.02000000 0.009430 79.216 0.999955 -12.19 0.999955 -12.19 0.009430 76.398
6.02250000 0.009436 79.212 0.999955 -12.20 0.999955 -12.20 0.009436 76.392
6.02500000 0.009441 79.208 0.999955 -12.20 0.999955 -12.20 0.009441 76.385
6.02750000 0.009446 79.204 0.999955 -12.21 0.999955 -12.21 0.009446 76.379
6.03000000 0.009451 79.200 0.999955 -12.21 0.999955 -12.21 0.009451 76.373
6.03250000 0.009457 79.196 0.999955 -12.22 0.999955 -12.22 0.009457 76.366
6.03500000 0.009462 79.192 0.999955 -12.22 0.999955 -12.22 0.009462 76.360
6.03750000 0.009468 79.188 0.999955 -12.23 0.999955 -12.23 0.009468 76.353
6.04000000 0.009473 79.185 0.999955 -12.23 0.999955 -12.23 0.009473 76.347
6.04250000 0.009478 79.181 0.999955 -12.24 0.999955 -12.24 0.009478 76.341
6.04500000 0.009484 79.177 0.999955 -12.25 0.999955 -12.25 0.009484 76.334
6.04750000 0.009489 79.173 0.999955 -12.25 0.999955 -12.25 0.009489 76.328
6.05000000 0.009494 79.169 0.999955 -12.26 0.999955 -12.26 0.009494 76.321
6.05250000 0.009500 79.165 0.999955 -12.26 0.999955 -12.26 0.009500 76.315
6.05500000 0.009505 79.161 0.999955 -12.27 0.999955 -12.27 0.009505 76.308
6.05750000 0.009511 79.158 0.999955 -12.27 0.999955 -12.27 0.009511 76.302
6.06000000 0.009516 79.154 0.999955 -12.28 0.999955 -12.28 0.009516 76.295
6.06250000 0.009522 79.150 0.999955 -12.28 0.999955 -12.28 0.009522 76.289
6.06500000 0.009527 79.146 0.999955 -12.29 0.999955 -12.29 0.009527 76.282
6.06750000 0.009533 79.142 0.999954 -12.29 0.999954 -12.29 0.009533 76.276
6.07000000 0.009538 79.139 0.999954 -12.30 0.999954 -12.30 0.009538 76.269
6.07250000 0.009544 79.135 0.999954 -12.30 0.999954 -12.30 0.009544 76.263
6.07500000 0.009549 79.131 0.999954 -12.31 0.999954 -12.31 0.009549 76.256
6.07750000 0.009555 79.127 0.999954 -12.31 0.999954 -12.31 0.009555 76.250
6.08000000 0.009561 79.123 0.999954 -12.32 0.999954 -12.32 0.009561 76.243
6.08250000 0.009566 79.120 0.999954 -12.32 0.999954 -12.32 0.009566 76.237
6.08500000 0.009572 79.116 0.999954 -12.33 0.999954 -12.33 0.009572 76.230
6.08750000 0.009578 79.112 0.999954 -12.33 0.999954 -12.33 0.009578 76.224
6.09000000 0.009583 79.108 0.999954 -12.34 0.999954 -12.34 0.009583 76.217
6.09250000 0.009589 79.105 0.999954 -12.34 0.999954 -12.34 0.009589 76.210
6.09500000 0.009595 79.101 0.999954 -12.35 0.999954 -12.35 0.009595 76.204
6.09750000 0.009600 79.097 0.999954 -12.35 0.999954 -12.35 0.009600 76.197
6.10000000 0.009606 79.093 0.999954 -12.36 0.999954 -12.36 0.009606 76.191
6.10250000 0.009612 79.090 0.999954 -12.36 0.999954 -12.36 0.009612 76.184
6.10500000 0.009618 79.086 0.999954 -12.37 0.999954 -12.37 0.009618 76.177
6.10750000 0.009623 79.082 0.999954 -12.37 0.999954 -12.37 0.009623 76.171
6.11000000 0.009629 79.079 0.999954 -12.38 0.999954 -12.38 0.009629 76.164
6.11250000 0.009635 79.075 0.999954 -12.38 0.999954 -12.38 0.009635 76.158
6.11500000 0.009641 79.071 0.999953 -12.39 0.999953 -12.39 0.009641 76.151
6.11750000 0.009647 79.067 0.999953 -12.39 0.999953 -12.39 0.009647 76.144
6.12000000 0.009653 79.064 0.999953 -12.40 0.999953 -12.40 0.009653 76.138
6.12250000 0.009658 79.060 0.999953 -12.41 0.999953 -12.41 0.009658 76.131
6.12500000 0.009664 79.056 0.999953 -12.41 0.999953 -12.41 0.009664 76.124
6.12750000 0.009670 79.053 0.999953 -12.42 0.999953 -12.42 0.009670 76.117
6.13000000 0.009676 79.049 0.999953 -12.42 0.999953 -12.42 0.009676 76.111
6.13250000 0.009682 79.046 0.999953 -12.43 0.999953 -12.43 0.009682 76.104
6.13500000 0.009688 79.042 0.999953 -12.43 0.999953 -12.43 0.009688 76.097
6.13750000 0.009694 79.038 0.999953 -12.44 0.999953 -12.44 0.009694 76.091
6.14000000 0.009700 79.035 0.999953 -12.44 0.999953 -12.44 0.009700 76.084
6.14250000 0.009706 79.031 0.999953 -12.45 0.999953 -12.45 0.009706 76.077
6.14500000 0.009713 79.027 0.999953 -12.45 0.999953 -12.45 0.009713 76.070
6.14750000 0.009719 79.024 0.999953 -12.46 0.999953 -12.46 0.009719 76.063
6.15000000 0.009725 79.020 0.999953 -12.46 0.999953 -12.46 0.009725 76.057
6.15250000 0.009731 79.017 0.999953 -12.47 0.999953 -12.47 0.009731 76.050
6.15500000 0.009737 79.013 0.999953 -12.47 0.999953 -12.47 0.009737 76.043
6.15750000 0.009743 79.010 0.999952 -12.48 0.999952 -12.48 0.009743 76.036
6.16000000 0.009750 79.006 0.999952 -12.48 0.999952 -12.48 0.009750 76.029
6.16250000 0.009756 79.003 0.999952 -12.49 0.999952 -12.49 0.009756 76.022
6.16500000 0.009762 78.999 0.999952 -12.49 0.999952 -12.49 0.009762 76.016
6.16750000 0.009768 78.995 0.999952 -12.50 0.999952 -12.50 0.009768 76.009
6.17000000 0.009775 78.992 0.999952 -12.50 0.999952 -12.50 0.009775 76.002
6.17250000 0.009781 78.988 0.999952 -12.51 0.999952 -12.51 0.009781 75.995
6.17500000 0.009788 78.985 0.999952 -12.51 0.999952 -12.51 0.009788 75.988
6.17750000 0.009794 78.982 0.999952 -12.52 0.999952 -12.52 0.009794 75.981
6.18000000 0.009800 78.978 0.999952 -12.52 0.999952 -12.52 0.009800 75.974
6.18250000 0.009807 78.975 0.999952 -12.53 0.999952 -12.53 0.009807 75.967
6.18500000 0.009813 78.971 0.999952 -12.54 0.999952 -12.54 0.009813 75.960
6.18750000 0.009820 78.968 0.999952 -12.54 0.999952 -12.54 0.009820 75.953
6.19000000 0.009826 78.964 0.999952 -12.55 0.999952 -12.55 0.009826 75.946
6.19250000 0.009833 78.961 0.999952 -12.55 0.999952 -12.55 0.009833 75.939
6.19500000 0.009840 78.958 0.999952 -12.56 0.999952 -12.56 0.009840 75.932
6.19750000 0.009846 78.954 0.999951 -12.56 0.999951 -12.56 0.009846 75.925
6.20000000 0.009853 78.951 0.999951 -12.57 0.999951 -12.57 0.009853 75.918
6.20250000 0.009860 78.947 0.999951 -12.57 0.999951 -12.57 0.009860 75.911
6.20500000 0.009866 78.944 0.999951 -12.58 0.999951 -12.58 0.009866 75.904
6.20750000 0.009873 78.941 0.999951 -12.58 0.999951 -12.58 0.009873 75.897
6.21000000 0.009880 78.937 0.999951 -12.59 0.999951 -12.59 0.009880 75.889
6.21250000 0.009887 78.934 0.999951 -12.59 0.999951 -12.59 0.009887 75.882
6.21500000 0.009894 78.931 0.999951 -12.60 0.999951 -12.60 0.009894 75.875
6.21750000 0.009901 78.927 0.999951 -12.60 0.999951 -12.60 0.009901 75.868
6.22000000 0.009908 78.924 0.999951 -12.61 0.999951 -12.61 0.009908 75.861
6.22250000 0.009915 78.921 0.999951 -12.61 0.999951 -12.61 0.009915 75.854
6.22500000 0.009922 78.918 0.999951 -12.62 0.999951 -12.62 0.009922 75.846
6.22750000 0.009929 78.914 0.999951 -12.62 0.999951 -12.62 0.009929 75.839
6.23000000 0.009936 78.911 0.999951 -12.63 0.999951 -12.63 0.009936 75.832
6.23250000 0.009943 78.908 0.999951 -12.63 0.999951 -12.63 0.009943 75.825
6.23500000 0.009950 78.905 0.999950 -12.64 0.999950 -12.64 0.009950 75.817
6.23750000 0.009957 78.902 0.999950 -12.65 0.999950 -12.65 0.009957 75.810
6.24000000 0.009965 78.898 0.999950 -12.65 0.999950 -12.65 0.009965 75.803
6.24250000 0.009972 78.895 0.999950 -12.66 0.999950 -12.66 0.009972 75.795
6.24500000 0.009979 78.892 0.999950 -12.66 0.999950 -12.66 0.009979 75.788
6.24750000 0.009987 78.889 0.999950 -12.67 0.999950 -12.67 0.009987 75.780
6.25000000 0.009994 78.886 0.999950 -12.67 0.999950 -12.67 0.009994 75.773
6.25250000 0.010002 78.883 0.999950 -12.68 0.999950 -12.68 0.010002 75.766
6.25500000 0.010009 78.880 0.999950 -12.68 0.999950 -12.68 0.010009 75.758
6.25750000 0.010017 78.877 0.999950 -12.69 0.999950 -12.69 0.010017 75.751
6.26000000 0.010024 78.874 0.999950 -12.69 0.999950 -12.69 0.010024 75.743
6.26250000 0.010032 78.871 0.999950 -12.70 0.999950 -12.70 0.010032 75.735
6.26500000 0.010040 78.868 0.999950 -12.70 0.999950 -12.70 0.010040 75.728
6.26750000 0.010048 78.865 0.999950 -12.71 0.999950 -12.71 0.010048 75.720
6.27000000 0.010055 78.862 0.999949 -12.71 0.999949 -12.71 0.010055 75.713
6.27250000 0.010063 78.859 0.999949 -12.72 0.999949 -12.72 0.010063 75.705
6.27500000 0.010071 78.856 0.999949 -12.72 0.999949 -12.72 0.010071 75.697
6.27750000 0.010079 78.853 0.999949 -12.73 0.999949 -12.73 0.010079 75.690
6.28000000 0.010087 78.850 0.999949 -12.73 0.999949 -12.73 0.010087 75.682
6.28250000 0.010095 78.847 0.999949 -12.74 0.999949 -12.74 0.010095 75.674
6.28500000 0.010104 78.844 0.999949 -12.75 0.999949 -12.75 0.010104 75.667
6.28750000 0.010112 78.841 0.999949 -12.75 0.999949 -12.75 0.010112 75.659
6.29000000 0.010120 78.839 0.999949 -12.76 0.999949 -12.76 0.010120 75.651
6.29250000 0.010128 78.836 0.999949 -12.76 0.999949 -12.76 0.010128 75.643
6.29500000 0.010137 78.833 0.999949 -12.77 0.999949 -12.77 0.010137 75.635
6.29750000 0.010145 78.830 0.999949 -12.77 0.999949 -12.77 0.010145 75.627
6.30000000 0.010154 78.828 0.999948 -12.78 0.999948 -12.78 0.010154 75.619
6.30250000 0.010162 78.825 0.999948 -12.78 0.999948 -12.78 0.010162 75.611
6.30500000 0.010171 78.822 0.999948 -12.79 0.999948 -12.79 0.010171 75.603
6.30750000 0.010180 78.820 0.999948 -12.79 0.999948 -12.79 0.010180 75.595
6.31000000 0.010189 78.817 0.999948 -12.80 0.999948 -12.80 0.010189 75.587
6.31250000 0.010197 78.814 0.999948 -12.80 0.999948 -12.80 0.010197 75.579
6.31500000 0.010206 78.812 0.999948 -12.81 0.999948 -12.81 0.010206 75.571
6.31750000 0.010215 78.809 0.999948 -12.81 0.999948 -12.81 0.010215 75.563
6.32000000 0.010225 78.807 0.999948 -12.82 0.999948 -12.82 0.010225 75.555
6.32250000 0.010234 78.804 0.999948 -12.83 0.999948 -12.83 0.010234 75.546
6.32500000 0.010243 78.802 0.999948 -12.83 0.999948 -12.83 0.010243 75.538
6.32750000 0.010252 78.799 0.999947 -12.84 0.999947 -12.84 0.010252 75.530
6.33000000 0.010262 78.797 0.999947 -12.84 0.999947 -12.84 0.010262 75.521
6.33250000 0.010271 78.795 0.999947 -12.85 0.999947 -12.85 0.010271 75.513
6.33500000 0.010281 78.792 0.999947 -12.85 0.999947 -12.85 0.010281 75.505
6.33750000 0.010291 78.790 0.999947 -12.86 0.999947 -12.86 0.010291 75.496
6.34000000 0.010300 78.788 0.999947 -12.86 0.999947 -12.86 0.010300 75.488
6.34250000 0.010310 78.785 0.999947 -12.87 0.999947 -12.87 0.010310 75.479
6.34500000 0.010320 78.783 0.999947 -12.87 0.999947 -12.87 0.010320 75.471
6.34750000 0.010330 78.781 0.999947 -12.88 0.999947 -12.88 0.010330 75.462
6.35000000 0.010341 78.779 0.999947 -12.89 0.999947 -12.89 0.010341 75.453
6.35250000 0.010351 78.777 0.999946 -12.89 0.999946 -12.89 0.010351 75.444
6.35500000 0.010361 78.775 0.999946 -12.90 0.999946 -12.90 0.010361 75.436
6.35750000 0.010372 78.773 0.999946 -12.90 0.999946 -12.90 0.010372 75.427
6.36000000 0.010382 78.771 0.999946 -12.91 0.999946 -12.91 0.010382 75.418
6.36250000 0.010393 78.769 0.999946 -12.91 0.999946 -12.91 0.010393 75.409
6.36500000 0.010404 78.767 0.999946 -12.92 0.999946 -12.92 0.010404 75.400
6.36750000 0.010415 78.765 0.999946 -12.92 0.999946 -12.92 0.010415 75.391
6.37000000 0.010426 78.763 0.999946 -12.93 0.999946 -12.93 0.010426 75.382
6.37250000 0.010437 78.761 0.999946 -12.93 0.999946 -12.93 0.010437 75.373
6.37500000 0.010449 78.759 0.999945 -12.94 0.999945 -12.94 0.010449 75.363
6.37750000 0.010460 78.758 0.999945 -12.95 0.999945 -12.95 0.010460 75.354
6.38000000 0.010472 78.756 0.999945 -12.95 0.999945 -12.95 0.010472 75.345
6.38250000 0.010484 78.754 0.999945 -12.96 0.999945 -12.96 0.010484 75.335
6.38500000 0.010495 78.753 0.999945 -12.96 0.999945 -12.96 0.010495 75.326
6.38750000 0.010508 78.751 0.999945 -12.97 0.999945 -12.97 0.010508 75.316
6.39000000 0.010520 78.750 0.999945 -12.97 0.999945 -12.97 0.010520 75.307
6.39250000 0.010532 78.748 0.999945 -12.98 0.999945 -12.98 0.010532 75.297
6.39500000 0.010545 78.747 0.999944 -12.98 0.999944 -12.98 0.010545 75.287
6.39750000 0.010557 78.746 0.999944 -12.99 0.999944 -12.99 0.010557 75.278
6.40000000 0.010570 78.744 0.999944 -13.00 0.999944 -13.00 0.010570 75.268
6.40250000 0.010583 78.743 0.999944 -13.00 0.999944 -13.00 0.010583 75.258
6.40500000 0.010597 78.742 0.999944 -13.01 0.999944 -13.01 0.010597 75.248
6.40750000 0.010610 78.741 0.999944 -13.01 0.999944 -13.01 0.010610 75.238
6.41000000 0.010624 78.740 0.999944 -13.02 0.999944 -13.02 0.010624 75.227
6.41250000 0.010637 78.739 0.999943 -13.02 0.999943 -13.02 0.010637 75.217
6.41500000 0.010651 78.738 0.999943 -13.03 0.999943 -13.03 0.010651 75.207
6.41750000 0.010666 78.737 0.999943 -13.03 0.999943 -13.03 0.010666 75.196
6.42000000 0.010680 78.736 0.999943 -13.04 0.999943 -13.04 0.010680 75.186
6.42250000 0.010695 78.736 0.999943 -13.05 0.999943 -13.05 0.010695 75.175
6.42500000 0.010710 78.735 0.999943 -13.05 0.999943 -13.05 0.010710 75.164
6.42750000 0.010725 78.734 0.999943 -13.06 0.999943 -13.06 0.010725 75.154
6.43000000 0.010740 78.734 0.999942 -13.06 0.999942 -13.06 0.010740 75.143
6.43250000 0.010756 78.733 0.999942 -13.07 0.999942 -13.07 0.010756 75.131
6.43500000 0.010772 78.733 0.999942 -13.07 0.999942 -13.07 0.010772 75.120
6.43750000 0.010788 78.733 0.999942 -13.08 0.999942 -13.08 0.010788 75.109
6.44000000 0.010804 78.733 0.999942 -13.09 0.999942 -13.09 0.010804 75.098
6.44250000 0.010821 78.733 0.999941 -13.09 0.999941 -13.09 0.010821 75.086
6.44500000 0.010838 78.733 0.999941 -13.10 0.999941 -13.10 0.010838 75.074
6.44750000 0.010856 78.733 0.999941 -13.10 0.999941 -13.10 0.010856 75.063
6.45000000 0.010873 78.733 0.999941 -13.11 0.999941 -13.11 0.010873 75.051
6.45250000 0.010891 78.733 0.999941 -13.12 0.999941 -13.12 0.010891 75.039
6.45500000 0.010910 78.734 0.999941 -13.12 0.999941 -13.12 0.010910 75.027
6.45750000 0.010928 78.734 0.999940 -13.13 0.999940 -13.13 0.010928 75.014
6.46000000 0.010947 78.735 0.999940 -13.13 0.999940 -13.13 0.010947 75.002
6.46250000 0.010967 78.735 0.999940 -13.14 0.999940 -13.14 0.010967 74.989
6.46500000 0.010987 78.736 0.999940 -13.14 0.999940 -13.14 0.010987 74.976
6.46750000 0.011007 78.737 0.999939 -13.15 0.999939 -13.15 0.011007 74.963
6.47000000 0.011028 78.738 0.999939 -13.16 0.999939 -13.16 0.011028 74.950
6.47250000 0.011049 78.740 0.999939 -13.16 0.999939 -13.16 0.011049 74.937
6.47500000 0.011071 78.741 0.999939 -13.17 0.999939 -13.17 0.011071 74.923
6.47750000 0.011093 78.742 0.999939 -13.18 0.999939 -13.18 0.011093 74.910
6.48000000 0.011115 78.744 0.999938 -13.18 0.999938 -13.18 0.011115 74.896
6.48250000 0.011139 78.746 0.999938 -13.19 0.999938 -13.19 0.011139 74.882
6.48500000 0.011162 78.748 0.999938 -13.19 0.999938 -13.19 0.011162 74.867
6.48750000 0.011187 78.750 0.999937 -13.20 0.999937 -13.20 0.011187 74.853
6.49000000 0.011212 78.752 0.999937 -13.21 0.999937 -13.21 0.011212 74.838
6.49250000 0.011237 78.754 0.999937 -13.21 0.999937 -13.21 0.011237 74.823
6.49500000 0.011263 78.757 0.999937 -13.22 0.999937 -13.22 0.011263 74.808
6.49750000 0.011290 78.760 0.999936 -13.23 0.999936 -13.23 0.011290 74.792
6.50000000 0.011318 78.763 0.999936 -13.23 0.999936 -13.23 0.011318 74.776
6.50250000 0.011346 78.766 0.999936 -13.24 0.999936 -13.24 0.011346 74.760
6.50500000 0.011375 78.769 0.999935 -13.24 0.999935 -13.24 0.011375 74.744
6.50750000 0.011405 78.773 0.999935 -13.25 0.999935 -13.25 0.011405 74.727
6.51000000 0.011436 78.777 0.999935 -13.26 0.999935 -13.26 0.011436 74.710
6.51250000 0.011468 78.781 0.999934 -13.26 0.999934 -13.26 0.011468 74.693
6.51500000 0.011500 78.785 0.999934 -13.27 0.999934 -13.27 0.011500 74.675
6.51750000 0.011534 78.789 0.999934 -13.28 0.999934 -13.28 0.011534 74.657
6.52000000 0.011569 78.794 0.999933 -13.28 0.999933 -13.28 0.011569 74.638
6.52250000 0.011605 78.799 0.999933 -13.29 0.999933 -13.29 0.011605 74.619
6.52500000 0.011642 78.805 0.999932 -13.30 0.999932 -13.30 0.011642 74.600
6.52750000 0.011680 78.810 0.999932 -13.31 0.999932 -13.31 0.011680 74.580
6.53000000 0.011720 78.816 0.999931 -13.31 0.999931 -13.31 0.011720 74.560
6.53250000 0.011761 78.823 0.999931 -13.32 0.999931 -13.32 0.011761 74.540
6.53500000 0.011803 78.829 0.999930 -13.33 0.999930 -13.33 0.011803 74.518
6.53750000 0.011847 78.836 0.999930 -13.33 0.999930 -13.33 0.011847 74.497
6.54000000 0.011893 78.844 0.999929 -13.34 0.999929 -13.34 0.011893 74.474
6.54250000 0.011941 78.851 0.999929 -13.35 0.999929 -13.35 0.011941 74.451
6.54500000 0.011990 78.860 0.999928 -13.36 0.999928 -13.36 0.011990 74.428
6.54750000 0.012041 78.868 0.999928 -13.37 0.999928 -13.37 0.012041 74.404
6.55000000 0.012095 78.877 0.999927 -13.37 0.999927 -13.37 0.012095 74.379
6.55250000 0.012151 78.887 0.999926 -13.38 0.999926 -13.38 0.012151 74.353
6.55500000 0.012209 78.897 0.999926 -13.39 0.999926 -13.39 0.012209 74.327
6.55750000 0.012270 78.907 0.999925 -13.40 0.999925 -13.40 0.012270 74.299
6.56000000 0.012333 78.919 0.999924 -13.41 0.999924 -13.41 0.012333 74.271
6.56250000 0.012400 78.930 0.999923 -13.42 0.999923 -13.42 0.012400 74.242
6.56500000 0.012470 78.943 0.999922 -13.42 0.999922 -13.42 0.012470 74.212
6.56750000 0.012544 78.956 0.999921 -13.43 0.999921 -13.43 0.012544 74.181
6.57000000 0.012621 78.970 0.999920 -13.44 0.999920 -13.44 0.012621 74.148
6.57250000 0.012703 78.984 0.999919 -13.45 0.999919 -13.45 0.012703 74.115
6.57500000 0.012789 78.999 0.999918 -13.46 0.999918 -13.46 0.012789 74.080
6.57750000 0.012880 79.016 0.999917 -13.47 0.999917 -13.47 0.012880 74.044
6.58000000 0.012976 79.033 0.999916 -13.48 0.999916 -13.48 0.012976 74.006
6.58250000 0.013078 79.051 0.999915 -13.49 0.999915 -13.49 0.013078 73.966
6.58500000 0.013187 79.070 0.999913 -13.50 0.999913 -13.50 0.013187 73.925
6.58750000 0.013303 79.090 0.999912 -13.52 0.999912 -13.52 0.013303 73.882
6.59000000 0.013427 79.111 0.999910 -13.53 0.999910 -13.53 0.013427 73.837
6.59250000 0.013559 79.134 0.999908 -13.54 0.999908 -13.54 0.013559 73.789
6.59500000 0.013701 79.157 0.999906 -13.55 0.999906 -13.55 0.013701 73.739
6.59750000 0.013854 79.183 0.999904 -13.57 0.999904 -13.57 0.013854 73.687
6.60000000 0.014019 79.209 0.999902 -13.58 0.999902 -13.58 0.014019 73.631
6.60250000 0.014198 79.238 0.999899 -13.60 0.999899 -13.60 0.014198 73.572
6.60500000 0.014393 79.268 0.999896 -13.61 0.999896 -13.61 0.014393 73.510
6.60750000 0.014605 79.300 0.999893 -13.63 0.999893 -13.63 0.014605 73.444
6.61000000 0.014838 79.334 0.999890 -13.65 0.999890 -13.65 0.014838 73.374
6.61250000 0.015094 79.370 0.999886 -13.67 0.999886 -13.67 0.015094 73.298
6.61500000 0.015377 79.409 0.999882 -13.69 0.999882 -13.69 0.015377 73.217
6.61750000 0.015693 79.450 0.999877 -13.71 0.999877 -13.71 0.015693 73.130
6.62000000 0.016046 79.493 0.999871 -13.74 0.999871 -13.74 0.016046 73.036
6.62250000 0.016444 79.539 0.999865 -13.76 0.999865 -13.76 0.016444 72.935
6.62500000 0.016897 79.588 0.999857 -13.79 0.999857 -13.79 0.016897 72.823
6.62750000 0.017417 79.640 0.999848 -13.83 0.999848 -13.83 0.017417 72.702
6.63000000 0.018019 79.695 0.999837 -13.87 0.999837 -13.87 0.018019 72.568
6.63250000 0.018725 79.752 0.999824 -13.91 0.999824 -13.91 0.018725 72.419
6.63500000 0.019565 79.812 0.999808 -13.97 0.999808 -13.97 0.019565 72.253
6.63750000 0.020581 79.873 0.999787 -14.03 0.999787 -14.03 0.020581 72.064
6.64000000 0.021841 79.932 0.999760 -14.11 0.999760 -14.11 0.021841 71.846
!< P1 F=6.64 Eeff=(5.67079819 -5.1709e-6) Z0=(51.6559405 2.3554e-5) R=0.00968644 C=0.0022568 
!< P2 F=6.64 Eeff=(5.67079819 -5.1709e-6) Z0=(51.6559405 2.3554e-5) R=0.00968644 C=0.0022568 
6.64020000 0.021954 79.937 0.999757 -14.11 0.999757 -14.11 0.021954 71.827
6.64040000 0.022070 79.941 0.999755 -14.12 0.999755 -14.12 0.022070 71.809
6.64060000 0.022187 79.946 0.999752 -14.13 0.999752 -14.13 0.022187 71.789
6.64080000 0.022307 79.951 0.999749 -14.14 0.999749 -14.14 0.022307 71.770
6.64100000 0.022430 79.955 0.999746 -14.14 0.999746 -14.14 0.022429 71.751
6.64120000 0.022554 79.960 0.999744 -14.15 0.999744 -14.15 0.022554 71.731
6.64140000 0.022682 79.964 0.999741 -14.16 0.999741 -14.16 0.022681 71.711
6.64160000 0.022811 79.969 0.999738 -14.17 0.999738 -14.17 0.022811 71.690
6.64180000 0.022944 79.973 0.999735 -14.17 0.999735 -14.17 0.022944 71.670
6.64200000 0.023079 79.978 0.999731 -14.18 0.999731 -14.18 0.023079 71.649
6.64220000 0.023217 79.982 0.999728 -14.19 0.999728 -14.19 0.023217 71.628
6.64240000 0.023358 79.987 0.999725 -14.20 0.999725 -14.20 0.023358 71.606
6.64260000 0.023502 79.991 0.999721 -14.21 0.999721 -14.21 0.023502 71.585
6.64280000 0.023650 79.995 0.999718 -14.22 0.999718 -14.22 0.023649 71.563
6.64300000 0.023800 79.999 0.999714 -14.23 0.999714 -14.23 0.023800 71.540
6.64320000 0.023954 80.003 0.999711 -14.23 0.999711 -14.23 0.023953 71.518
6.64340000 0.024111 80.007 0.999707 -14.24 0.999707 -14.24 0.024111 71.495
6.64360000 0.024271 80.011 0.999703 -14.25 0.999703 -14.25 0.024271 71.471
6.64380000 0.024436 80.015 0.999699 -14.26 0.999699 -14.26 0.024436 71.448
6.64400000 0.024604 80.019 0.999695 -14.27 0.999695 -14.27 0.024604 71.424
6.64420000 0.024776 80.022 0.999690 -14.28 0.999690 -14.28 0.024776 71.399
6.64440000 0.024952 80.026 0.999686 -14.29 0.999686 -14.29 0.024952 71.375
6.64460000 0.025133 80.029 0.999681 -14.30 0.999681 -14.30 0.025133 71.350
6.64480000 0.025318 80.032 0.999677 -14.32 0.999677 -14.32 0.025317 71.324
6.64500000 0.025507 80.036 0.999672 -14.33 0.999672 -14.33 0.025507 71.298
6.64520000 0.025701 80.039 0.999667 -14.34 0.999667 -14.34 0.025701 71.272
6.64540000 0.025900 80.042 0.999661 -14.35 0.999661 -14.35 0.025900 71.245
6.64560000 0.026104 80.044 0.999656 -14.36 0.999656 -14.36 0.026104 71.218
6.64580000 0.026313 80.047 0.999650 -14.37 0.999650 -14.37 0.026313 71.190
6.64600000 0.026528 80.049 0.999645 -14.39 0.999645 -14.39 0.026528 71.162
6.64620000 0.026749 80.052 0.999639 -14.40 0.999639 -14.40 0.026748 71.134
6.64640000 0.026975 80.054 0.999633 -14.41 0.999633 -14.41 0.026975 71.105
6.64660000 0.027208 80.055 0.999626 -14.43 0.999626 -14.43 0.027208 71.075
6.64680000 0.027447 80.057 0.999620 -14.44 0.999620 -14.44 0.027447 71.045
6.64700000 0.027693 80.058 0.999613 -14.46 0.999613 -14.46 0.027692 71.014
6.64720000 0.027945 80.060 0.999605 -14.47 0.999605 -14.47 0.027945 70.983
6.64740000 0.028205 80.060 0.999598 -14.49 0.999598 -14.49 0.028205 70.951
6.64760000 0.028473 80.061 0.999590 -14.50 0.999590 -14.50 0.028473 70.919
6.64780000 0.028749 80.061 0.999582 -14.52 0.999582 -14.52 0.028748 70.886
6.64800000 0.029033 80.061 0.999574 -14.53 0.999574 -14.53 0.029032 70.852
6.64820000 0.029325 80.061 0.999565 -14.55 0.999565 -14.55 0.029325 70.818
6.64840000 0.029627 80.060 0.999556 -14.57 0.999556 -14.57 0.029627 70.783
6.64860000 0.029938 80.059 0.999547 -14.59 0.999547 -14.59 0.029938 70.747
6.64880000 0.030259 80.058 0.999537 -14.61 0.999537 -14.61 0.030259 70.710
6.64900000 0.030591 80.056 0.999527 -14.63 0.999527 -14.63 0.030591 70.673
6.64920000 0.030934 80.054 0.999516 -14.65 0.999516 -14.65 0.030934 70.635
6.64940000 0.031288 80.051 0.999505 -14.67 0.999505 -14.67 0.031288 70.596
6.64960000 0.031655 80.048 0.999493 -14.69 0.999493 -14.69 0.031654 70.556
6.64980000 0.032034 80.044 0.999481 -14.71 0.999481 -14.71 0.032034 70.515
6.65000000 0.032427 80.040 0.999468 -14.73 0.999468 -14.73 0.032426 70.473
6.65020000 0.032834 80.035 0.999454 -14.76 0.999454 -14.76 0.032833 70.430
6.65040000 0.033256 80.029 0.999440 -14.78 0.999440 -14.78 0.033255 70.386
6.65060000 0.033693 80.023 0.999425 -14.81 0.999425 -14.81 0.033693 70.341
6.65080000 0.034148 80.015 0.999410 -14.83 0.999410 -14.83 0.034148 70.294
6.65100000 0.034620 80.007 0.999393 -14.86 0.999393 -14.86 0.034620 70.247
6.65120000 0.035111 79.999 0.999376 -14.89 0.999376 -14.89 0.035111 70.198
6.65140000 0.035622 79.989 0.999357 -14.92 0.999357 -14.92 0.035622 70.148
6.65160000 0.036154 79.978 0.999338 -14.95 0.999338 -14.95 0.036154 70.096
6.65180000 0.036709 79.966 0.999317 -14.98 0.999317 -14.98 0.036708 70.042
6.65200000 0.037288 79.953 0.999296 -15.02 0.999296 -15.02 0.037287 69.988
6.65220000 0.037892 79.939 0.999272 -15.05 0.999272 -15.05 0.037891 69.931
6.65240000 0.038523 79.924 0.999248 -15.09 0.999248 -15.09 0.038523 69.872
6.65260000 0.039184 79.907 0.999222 -15.13 0.999222 -15.13 0.039183 69.812
6.65280000 0.039876 79.888 0.999194 -15.17 0.999194 -15.17 0.039875 69.749
6.65300000 0.040601 79.868 0.999164 -15.21 0.999164 -15.21 0.040601 69.685
6.65320000 0.041362 79.846 0.999132 -15.25 0.999132 -15.25 0.041362 69.618
6.65340000 0.042163 79.822 0.999098 -15.30 0.999098 -15.30 0.042162 69.548
6.65360000 0.043005 79.796 0.999062 -15.35 0.999062 -15.35 0.043004 69.476
6.65380000 0.043892 79.767 0.999022 -15.40 0.999022 -15.40 0.043891 69.401
6.65400000 0.044828 79.736 0.998980 -15.45 0.998980 -15.45 0.044827 69.322
6.65420000 0.045817 79.702 0.998934 -15.51 0.998934 -15.51 0.045816 69.240
6.65440000 0.046864 79.665 0.998885 -15.57 0.998885 -15.57 0.046863 69.155
6.65460000 0.047973 79.625 0.998831 -15.63 0.998831 -15.63 0.047973 69.066
6.65480000 0.049152 79.581 0.998773 -15.70 0.998773 -15.70 0.049151 68.972
6.65500000 0.050406 79.533 0.998709 -15.77 0.998709 -15.77 0.050405 68.874
6.65520000 0.051742 79.481 0.998639 -15.85 0.998639 -15.85 0.051741 68.770
6.65540000 0.053170 79.423 0.998563 -15.93 0.998563 -15.93 0.053169 68.661
6.65560000 0.054699 79.360 0.998479 -16.02 0.998479 -16.02 0.054698 68.546
6.65580000 0.056339 79.291 0.998386 -16.12 0.998386 -16.12 0.056338 68.424
6.65600000 0.058105 79.215 0.998283 -16.22 0.998283 -16.22 0.058104 68.294
6.65620000 0.060009 79.131 0.998168 -16.33 0.998168 -16.33 0.060009 68.156
6.65640000 0.062071 79.039 0.998039 -16.45 0.998039 -16.45 0.062070 68.008
6.65660000 0.064310 78.936 0.997894 -16.58 0.997894 -16.58 0.064309 67.850
6.65680000 0.066749 78.822 0.997731 -16.72 0.997731 -16.72 0.066748 67.680
6.65700000 0.069416 78.696 0.997545 -16.87 0.997545 -16.87 0.069415 67.496
6.65720000 0.072347 78.554 0.997333 -17.04 0.997333 -17.04 0.072345 67.296
6.65740000 0.075580 78.395 0.997088 -17.22 0.997088 -17.22 0.075579 67.078
6.65760000 0.079166 78.216 0.996804 -17.43 0.996804 -17.43 0.079165 66.839
6.65780000 0.083165 78.013 0.996471 -17.66 0.996471 -17.66 0.083164 66.576
6.65800000 0.087654 77.782 0.996078 -17.92 0.996078 -17.92 0.087652 66.284
6.65820000 0.092726 77.518 0.995609 -18.21 0.995609 -18.21 0.092725 65.957
6.65840000 0.098504 77.212 0.995042 -18.54 0.995042 -18.54 0.098503 65.588
6.65860000 0.105146 76.857 0.994347 -18.93 0.994347 -18.93 0.105144 65.169
6.65880000 0.112859 76.439 0.993483 -19.37 0.993483 -19.37 0.112857 64.686
6.65900000 0.121923 75.942 0.992388 -19.90 0.992388 -19.90 0.121921 64.123
6.65920000 0.132725 75.344 0.990970 -20.52 0.990970 -20.52 0.132722 63.458
6.65940000 0.145811 74.611 0.989088 -21.28 0.989088 -21.28 0.145808 62.657
6.65960000 0.161982 73.696 0.986512 -22.22 0.986512 -22.22 0.161979 61.673
6.65980000 0.182455 72.525 0.982850 -23.41 0.982850 -23.41 0.182451 60.432
6.66000000 0.209166 70.980 0.977392 -24.97 0.977392 -24.97 0.209162 58.816
6.66020000 0.245376 68.858 0.968740 -27.10 0.968740 -27.10 0.245371 56.622
6.66040000 0.296999 65.781 0.953839 -30.17 0.953839 -30.17 0.296993 53.472
!< P1 F=6.6604 Eeff=(5.67079778 -5.1707e-6) Z0=(51.6559374 2.35492e-5) R=0.00965237 C=0.0022568 
!< P2 F=6.6604 Eeff=(5.67079778 -5.1707e-6) Z0=(51.6559374 2.35492e-5) R=0.00965237 C=0.0022568 
6.66041000 0.300145 65.591 0.952829 -30.36 0.952829 -30.36 0.300139 53.278
6.66042000 0.303360 65.397 0.951786 -30.56 0.951786 -30.56 0.303354 53.081
6.66043000 0.306644 65.199 0.950708 -30.75 0.950708 -30.75 0.306638 52.879
6.66044000 0.309998 64.996 0.949594 -30.95 0.949594 -30.95 0.309992 52.672
6.66045000 0.313425 64.788 0.948442 -31.16 0.948442 -31.16 0.313419 52.461
6.66046000 0.316927 64.576 0.947251 -31.37 0.947251 -31.37 0.316921 52.245
6.66047000 0.320506 64.358 0.946017 -31.59 0.946017 -31.59 0.320500 52.023
6.66048000 0.324165 64.136 0.944740 -31.81 0.944740 -31.81 0.324159 51.797
6.66049000 0.327906 63.908 0.943418 -32.04 0.943418 -32.04 0.327900 51.565
6.66050000 0.331732 63.674 0.942048 -32.27 0.942048 -32.27 0.331725 51.328
6.66051000 0.335645 63.435 0.940628 -32.51 0.940628 -32.51 0.335638 51.085
6.66052000 0.339649 63.190 0.939156 -32.75 0.939156 -32.75 0.339642 50.836
6.66053000 0.343746 62.938 0.937629 -33.00 0.937629 -33.00 0.343739 50.581
6.66054000 0.347939 62.681 0.936045 -33.26 0.936045 -33.26 0.347932 50.320
6.66055000 0.352231 62.416 0.934400 -33.52 0.934400 -33.52 0.352224 50.052
6.66056000 0.356626 62.145 0.932692 -33.79 0.932692 -33.79 0.356619 49.777
6.66057000 0.361127 61.867 0.930918 -34.07 0.930918 -34.07 0.361120 49.495
6.66058000 0.365738 61.581 0.929074 -34.35 0.929074 -34.35 0.365731 49.205
6.66059000 0.370462 61.288 0.927156 -34.64 0.927156 -34.64 0.370455 48.908
6.66060000 0.375303 60.986 0.925161 -34.94 0.925161 -34.94 0.375295 48.603
6.66061000 0.380265 60.677 0.923084 -35.25 0.923084 -35.25 0.380257 48.290
6.66062000 0.385352 60.359 0.920922 -35.56 0.920922 -35.56 0.385344 47.968
6.66063000 0.390568 60.032 0.918670 -35.89 0.918670 -35.89 0.390561 47.637
6.66064000 0.395919 59.695 0.916323 -36.22 0.916323 -36.22 0.395911 47.297
6.66065000 0.401407 59.349 0.913875 -36.56 0.913875 -36.56 0.401399 46.948
6.66066000 0.407039 58.993 0.911322 -36.91 0.911322 -36.91 0.407030 46.588
6.66067000 0.412818 58.627 0.908656 -37.28 0.908656 -37.28 0.412810 46.218
6.66068000 0.418751 58.250 0.905873 -37.65 0.905873 -37.65 0.418742 45.836
6.66069000 0.424842 57.861 0.902965 -38.04 0.902965 -38.04 0.424833 45.444
6.66070000 0.431096 57.460 0.899925 -38.43 0.899925 -38.43 0.431088 45.040