! Sonnet Data File
! From: em Version : 14.52
! From Project: RO_1
! Data is De-embedded 
! Data File Written: 01/09/2019 01:55:58
!< HDATE 01/08/2019 16:42:51
!< MDATE 01/09/2019 01:37:34
# GHZ S MA R 50.00000
6.20000000 0.008630 78.784 0.999963 -12.56 0.999963 -12.56 0.008630 76.105
!< P1 F=6.2 Eeff=(5.6707873 -5.1698e-6) Z0=(51.4004923 2.3433e-5) R=0.01048851 C=0.00223192 
!< P2 F=6.2 Eeff=(5.6707873 -5.1698e-6) Z0=(51.4004923 2.3433e-5) R=0.01048851 C=0.00223192 
6.20200000 0.008636 78.782 0.999963 -12.56 0.999963 -12.56 0.008636 76.099
6.20400000 0.008642 78.779 0.999963 -12.56 0.999963 -12.56 0.008642 76.093
6.20600000 0.008648 78.777 0.999963 -12.57 0.999963 -12.57 0.008648 76.087
6.20800000 0.008654 78.774 0.999962 -12.57 0.999962 -12.57 0.008654 76.081
6.21000000 0.008659 78.772 0.999962 -12.58 0.999962 -12.58 0.008659 76.075
6.21200000 0.008665 78.769 0.999962 -12.58 0.999962 -12.58 0.008665 76.069
6.21400000 0.008671 78.767 0.999962 -12.59 0.999962 -12.59 0.008671 76.063
6.21600000 0.008678 78.765 0.999962 -12.59 0.999962 -12.59 0.008678 76.057
6.21800000 0.008684 78.762 0.999962 -12.59 0.999962 -12.59 0.008684 76.051
6.22000000 0.008690 78.760 0.999962 -12.60 0.999962 -12.60 0.008690 76.045
6.22200000 0.008696 78.757 0.999962 -12.60 0.999962 -12.60 0.008696 76.039
6.22400000 0.008702 78.755 0.999962 -12.61 0.999962 -12.61 0.008702 76.033
6.22600000 0.008708 78.753 0.999962 -12.61 0.999962 -12.61 0.008708 76.027
6.22800000 0.008715 78.750 0.999962 -12.62 0.999962 -12.62 0.008715 76.021
6.23000000 0.008721 78.748 0.999962 -12.62 0.999962 -12.62 0.008721 76.014
6.23200000 0.008727 78.746 0.999962 -12.62 0.999962 -12.62 0.008727 76.008
6.23400000 0.008734 78.743 0.999962 -12.63 0.999962 -12.63 0.008734 76.002
6.23600000 0.008740 78.741 0.999962 -12.63 0.999962 -12.63 0.008740 75.996
6.23800000 0.008747 78.739 0.999962 -12.64 0.999962 -12.64 0.008747 75.990
6.24000000 0.008753 78.736 0.999962 -12.64 0.999962 -12.64 0.008753 75.983
6.24200000 0.008760 78.734 0.999962 -12.65 0.999962 -12.65 0.008760 75.977
6.24400000 0.008767 78.732 0.999961 -12.65 0.999961 -12.65 0.008767 75.971
6.24600000 0.008773 78.730 0.999961 -12.65 0.999961 -12.65 0.008773 75.964
6.24800000 0.008780 78.727 0.999961 -12.66 0.999961 -12.66 0.008780 75.958
6.25000000 0.008787 78.725 0.999961 -12.66 0.999961 -12.66 0.008787 75.952
6.25200000 0.008794 78.723 0.999961 -12.67 0.999961 -12.67 0.008794 75.945
6.25400000 0.008801 78.721 0.999961 -12.67 0.999961 -12.67 0.008801 75.939
6.25600000 0.008808 78.719 0.999961 -12.68 0.999961 -12.68 0.008808 75.932
6.25800000 0.008815 78.717 0.999961 -12.68 0.999961 -12.68 0.008815 75.926
6.26000000 0.008822 78.715 0.999961 -12.68 0.999961 -12.68 0.008822 75.920
6.26200000 0.008829 78.712 0.999961 -12.69 0.999961 -12.69 0.008829 75.913
6.26400000 0.008836 78.710 0.999961 -12.69 0.999961 -12.69 0.008836 75.907
6.26600000 0.008843 78.708 0.999961 -12.70 0.999961 -12.70 0.008843 75.900
6.26800000 0.008851 78.706 0.999961 -12.70 0.999961 -12.70 0.008851 75.893
6.27000000 0.008858 78.704 0.999961 -12.71 0.999961 -12.71 0.008858 75.887
6.27200000 0.008866 78.702 0.999961 -12.71 0.999961 -12.71 0.008866 75.880
6.27400000 0.008873 78.700 0.999961 -12.71 0.999961 -12.71 0.008873 75.873
6.27600000 0.008881 78.698 0.999960 -12.72 0.999960 -12.72 0.008881 75.867
6.27800000 0.008888 78.696 0.999960 -12.72 0.999960 -12.72 0.008888 75.860
6.28000000 0.008896 78.694 0.999960 -12.73 0.999960 -12.73 0.008896 75.853
6.28200000 0.008904 78.693 0.999960 -12.73 0.999960 -12.73 0.008904 75.847
6.28400000 0.008912 78.691 0.999960 -12.74 0.999960 -12.74 0.008912 75.840
6.28600000 0.008920 78.689 0.999960 -12.74 0.999960 -12.74 0.008920 75.833
6.28800000 0.008928 78.687 0.999960 -12.74 0.999960 -12.74 0.008928 75.826
6.29000000 0.008936 78.685 0.999960 -12.75 0.999960 -12.75 0.008936 75.819
6.29200000 0.008944 78.683 0.999960 -12.75 0.999960 -12.75 0.008944 75.812
6.29400000 0.008952 78.682 0.999960 -12.76 0.999960 -12.76 0.008952 75.805
6.29600000 0.008960 78.680 0.999960 -12.76 0.999960 -12.76 0.008960 75.798
6.29800000 0.008969 78.678 0.999960 -12.77 0.999960 -12.77 0.008969 75.791
6.30000000 0.008977 78.677 0.999960 -12.77 0.999960 -12.77 0.008977 75.784
6.30200000 0.008986 78.675 0.999960 -12.77 0.999960 -12.77 0.008986 75.777
6.30400000 0.008994 78.673 0.999959 -12.78 0.999959 -12.78 0.008994 75.770
6.30600000 0.009003 78.672 0.999959 -12.78 0.999959 -12.78 0.009003 75.763
6.30800000 0.009012 78.670 0.999959 -12.79 0.999959 -12.79 0.009012 75.755
6.31000000 0.009021 78.669 0.999959 -12.79 0.999959 -12.79 0.009021 75.748
6.31200000 0.009030 78.667 0.999959 -12.80 0.999959 -12.80 0.009030 75.741
6.31400000 0.009039 78.666 0.999959 -12.80 0.999959 -12.80 0.009039 75.734
6.31600000 0.009048 78.664 0.999959 -12.81 0.999959 -12.81 0.009048 75.726
6.31800000 0.009057 78.663 0.999959 -12.81 0.999959 -12.81 0.009057 75.719
6.32000000 0.009067 78.661 0.999959 -12.81 0.999959 -12.81 0.009067 75.711
6.32200000 0.009076 78.660 0.999959 -12.82 0.999959 -12.82 0.009076 75.704
6.32400000 0.009086 78.659 0.999959 -12.82 0.999959 -12.82 0.009086 75.696
6.32600000 0.009096 78.657 0.999959 -12.83 0.999959 -12.83 0.009096 75.689
6.32800000 0.009106 78.656 0.999958 -12.83 0.999958 -12.83 0.009106 75.681
6.33000000 0.009115 78.655 0.999958 -12.84 0.999958 -12.84 0.009115 75.673
6.33200000 0.009126 78.654 0.999958 -12.84 0.999958 -12.84 0.009126 75.666
6.33400000 0.009136 78.652 0.999958 -12.85 0.999958 -12.85 0.009136 75.658
6.33600000 0.009146 78.651 0.999958 -12.85 0.999958 -12.85 0.009146 75.650
6.33800000 0.009157 78.650 0.999958 -12.85 0.999958 -12.85 0.009157 75.642
6.34000000 0.009167 78.649 0.999958 -12.86 0.999958 -12.86 0.009167 75.634
6.34200000 0.009178 78.648 0.999958 -12.86 0.999958 -12.86 0.009178 75.626
6.34400000 0.009189 78.647 0.999958 -12.87 0.999958 -12.87 0.009189 75.618
6.34600000 0.009200 78.646 0.999958 -12.87 0.999958 -12.87 0.009200 75.610
6.34800000 0.009211 78.645 0.999958 -12.88 0.999958 -12.88 0.009211 75.602
6.35000000 0.009222 78.645 0.999957 -12.88 0.999957 -12.88 0.009222 75.593
6.35200000 0.009234 78.644 0.999957 -12.89 0.999957 -12.89 0.009234 75.585
6.35400000 0.009245 78.643 0.999957 -12.89 0.999957 -12.89 0.009245 75.577
6.35600000 0.009257 78.642 0.999957 -12.90 0.999957 -12.90 0.009257 75.568
6.35800000 0.009269 78.642 0.999957 -12.90 0.999957 -12.90 0.009269 75.560
6.36000000 0.009281 78.641 0.999957 -12.90 0.999957 -12.90 0.009281 75.551
6.36200000 0.009294 78.641 0.999957 -12.91 0.999957 -12.91 0.009294 75.543
6.36400000 0.009306 78.640 0.999957 -12.91 0.999957 -12.91 0.009306 75.534
6.36600000 0.009319 78.640 0.999957 -12.92 0.999957 -12.92 0.009319 75.525
6.36800000 0.009332 78.639 0.999956 -12.92 0.999956 -12.92 0.009332 75.516
6.37000000 0.009345 78.639 0.999956 -12.93 0.999956 -12.93 0.009345 75.507
6.37200000 0.009358 78.638 0.999956 -12.93 0.999956 -12.93 0.009358 75.498
6.37400000 0.009372 78.638 0.999956 -12.94 0.999956 -12.94 0.009372 75.489
6.37600000 0.009385 78.638 0.999956 -12.94 0.999956 -12.94 0.009385 75.480
6.37800000 0.009399 78.638 0.999956 -12.95 0.999956 -12.95 0.009399 75.471
6.38000000 0.009413 78.638 0.999956 -12.95 0.999956 -12.95 0.009413 75.462
6.38200000 0.009428 78.638 0.999956 -12.96 0.999956 -12.96 0.009428 75.452
6.38400000 0.009442 78.638 0.999955 -12.96 0.999955 -12.96 0.009442 75.443
6.38600000 0.009457 78.638 0.999955 -12.97 0.999955 -12.97 0.009457 75.433
6.38800000 0.009472 78.638 0.999955 -12.97 0.999955 -12.97 0.009472 75.423
6.39000000 0.009488 78.639 0.999955 -12.97 0.999955 -12.97 0.009488 75.413
6.39200000 0.009504 78.639 0.999955 -12.98 0.999955 -12.98 0.009504 75.403
6.39400000 0.009520 78.639 0.999955 -12.98 0.999955 -12.98 0.009520 75.393
6.39600000 0.009536 78.640 0.999954 -12.99 0.999954 -12.99 0.009536 75.383
6.39800000 0.009552 78.640 0.999954 -12.99 0.999954 -12.99 0.009552 75.373
6.40000000 0.009569 78.641 0.999954 -13.00 0.999954 -13.00 0.009569 75.363
6.40200000 0.009587 78.642 0.999954 -13.00 0.999954 -13.00 0.009587 75.352
6.40400000 0.009604 78.643 0.999954 -13.01 0.999954 -13.01 0.009604 75.342
6.40600000 0.009622 78.644 0.999954 -13.01 0.999954 -13.01 0.009622 75.331
6.40800000 0.009640 78.645 0.999953 -13.02 0.999953 -13.02 0.009640 75.320
6.41000000 0.009659 78.646 0.999953 -13.02 0.999953 -13.02 0.009659 75.309
6.41200000 0.009678 78.647 0.999953 -13.03 0.999953 -13.03 0.009678 75.298
6.41400000 0.009697 78.648 0.999953 -13.03 0.999953 -13.03 0.009697 75.286
6.41600000 0.009717 78.650 0.999953 -13.04 0.999953 -13.04 0.009717 75.275
6.41800000 0.009738 78.651 0.999953 -13.04 0.999953 -13.04 0.009738 75.263
6.42000000 0.009758 78.653 0.999952 -13.05 0.999952 -13.05 0.009758 75.252
6.42200000 0.009779 78.654 0.999952 -13.05 0.999952 -13.05 0.009779 75.240
6.42400000 0.009801 78.656 0.999952 -13.06 0.999952 -13.06 0.009801 75.228
6.42600000 0.009823 78.658 0.999952 -13.06 0.999952 -13.06 0.009823 75.215
6.42800000 0.009846 78.660 0.999951 -13.07 0.999951 -13.07 0.009846 75.203
6.43000000 0.009869 78.662 0.999951 -13.07 0.999951 -13.07 0.009869 75.190
6.43200000 0.009893 78.665 0.999951 -13.08 0.999951 -13.08 0.009893 75.177
6.43400000 0.009918 78.667 0.999951 -13.09 0.999951 -13.09 0.009918 75.164
6.43600000 0.009943 78.670 0.999951 -13.09 0.999951 -13.09 0.009943 75.151
6.43800000 0.009968 78.673 0.999950 -13.10 0.999950 -13.10 0.009968 75.137
6.44000000 0.009995 78.676 0.999950 -13.10 0.999950 -13.10 0.009995 75.124
6.44200000 0.010022 78.679 0.999950 -13.11 0.999950 -13.11 0.010022 75.110
6.44400000 0.010049 78.682 0.999949 -13.11 0.999949 -13.11 0.010049 75.096
6.44600000 0.010078 78.685 0.999949 -13.12 0.999949 -13.12 0.010078 75.081
6.44800000 0.010107 78.689 0.999949 -13.12 0.999949 -13.12 0.010107 75.066
6.45000000 0.010137 78.693 0.999949 -13.13 0.999949 -13.13 0.010137 75.051
6.45200000 0.010169 78.696 0.999948 -13.13 0.999948 -13.13 0.010169 75.036
6.45400000 0.010201 78.701 0.999948 -13.14 0.999948 -13.14 0.010201 75.021
6.45600000 0.010233 78.705 0.999948 -13.15 0.999948 -13.15 0.010233 75.005
6.45800000 0.010267 78.709 0.999947 -13.15 0.999947 -13.15 0.010267 74.988
6.46000000 0.010302 78.714 0.999947 -13.16 0.999947 -13.16 0.010302 74.972
6.46200000 0.010339 78.719 0.999947 -13.16 0.999947 -13.16 0.010339 74.955
6.46400000 0.010376 78.724 0.999946 -13.17 0.999946 -13.17 0.010376 74.938
6.46600000 0.010415 78.730 0.999946 -13.18 0.999946 -13.18 0.010415 74.920
6.46800000 0.010454 78.735 0.999945 -13.18 0.999945 -13.18 0.010454 74.902
6.47000000 0.010496 78.741 0.999945 -13.19 0.999945 -13.19 0.010496 74.884
6.47200000 0.010538 78.748 0.999944 -13.19 0.999944 -13.19 0.010538 74.865
6.47400000 0.010583 78.754 0.999944 -13.20 0.999944 -13.20 0.010583 74.845
6.47600000 0.010629 78.761 0.999943 -13.21 0.999943 -13.21 0.010629 74.825
6.47800000 0.010676 78.768 0.999943 -13.21 0.999943 -13.21 0.010676 74.805
6.48000000 0.010726 78.776 0.999942 -13.22 0.999942 -13.22 0.010726 74.784
6.48200000 0.010777 78.783 0.999942 -13.23 0.999942 -13.23 0.010777 74.763
6.48400000 0.010831 78.791 0.999941 -13.23 0.999941 -13.23 0.010831 74.740
6.48600000 0.010887 78.800 0.999941 -13.24 0.999941 -13.24 0.010887 74.718
6.48800000 0.010945 78.809 0.999940 -13.25 0.999940 -13.25 0.010945 74.694
6.49000000 0.011006 78.818 0.999939 -13.26 0.999939 -13.26 0.011006 74.670
6.49200000 0.011069 78.828 0.999939 -13.26 0.999939 -13.26 0.011069 74.645
6.49400000 0.011135 78.838 0.999938 -13.27 0.999938 -13.27 0.011135 74.620
6.49600000 0.011205 78.849 0.999937 -13.28 0.999937 -13.28 0.011205 74.593
6.49800000 0.011278 78.860 0.999936 -13.29 0.999936 -13.29 0.011278 74.566
6.50000000 0.011354 78.871 0.999936 -13.30 0.999936 -13.30 0.011354 74.538
6.50200000 0.011434 78.884 0.999935 -13.30 0.999935 -13.30 0.011434 74.509
6.50400000 0.011519 78.896 0.999934 -13.31 0.999934 -13.31 0.011519 74.478
6.50600000 0.011608 78.910 0.999933 -13.32 0.999933 -13.32 0.011608 74.447
6.50800000 0.011702 78.924 0.999931 -13.33 0.999931 -13.33 0.011702 74.414
6.51000000 0.011802 78.938 0.999930 -13.34 0.999930 -13.34 0.011802 74.381
6.51200000 0.011907 78.954 0.999929 -13.35 0.999929 -13.35 0.011907 74.345
6.51400000 0.012019 78.970 0.999928 -13.36 0.999928 -13.36 0.012019 74.309
6.51600000 0.012138 78.986 0.999926 -13.37 0.999926 -13.37 0.012138 74.270
6.51800000 0.012265 79.004 0.999925 -13.38 0.999925 -13.38 0.012265 74.230
6.52000000 0.012400 79.023 0.999923 -13.40 0.999923 -13.40 0.012400 74.188
6.52200000 0.012545 79.042 0.999921 -13.41 0.999921 -13.41 0.012545 74.145
6.52400000 0.012701 79.062 0.999919 -13.42 0.999919 -13.42 0.012701 74.099
6.52600000 0.012868 79.084 0.999917 -13.43 0.999917 -13.43 0.012868 74.050
6.52800000 0.013049 79.106 0.999915 -13.45 0.999915 -13.45 0.013049 73.999
6.53000000 0.013244 79.129 0.999912 -13.46 0.999912 -13.46 0.013244 73.945
6.53200000 0.013457 79.154 0.999909 -13.48 0.999909 -13.48 0.013457 73.889
6.53400000 0.013688 79.179 0.999906 -13.50 0.999906 -13.50 0.013688 73.828
6.53600000 0.013942 79.206 0.999903 -13.51 0.999903 -13.51 0.013942 73.764
6.53800000 0.014221 79.235 0.999899 -13.53 0.999899 -13.53 0.014221 73.696
6.54000000 0.014530 79.264 0.999894 -13.56 0.999894 -13.56 0.014530 73.623
6.54200000 0.014872 79.295 0.999889 -13.58 0.999889 -13.58 0.014872 73.545
6.54400000 0.015255 79.327 0.999883 -13.61 0.999883 -13.61 0.015255 73.461
6.54600000 0.015686 79.360 0.999877 -13.63 0.999877 -13.63 0.015686 73.370
6.54800000 0.016175 79.394 0.999869 -13.67 0.999869 -13.67 0.016175 73.272
6.55000000 0.016734 79.429 0.999859 -13.70 0.999859 -13.70 0.016734 73.165
6.55200000 0.017380 79.464 0.999848 -13.74 0.999848 -13.74 0.017380 73.047
6.55400000 0.018134 79.499 0.999835 -13.79 0.999835 -13.79 0.018134 72.917
6.55600000 0.019027 79.533 0.999818 -13.85 0.999818 -13.85 0.019027 72.772
6.55800000 0.020101 79.564 0.999797 -13.91 0.999797 -13.91 0.020101 72.609
6.56000000 0.021417 79.589 0.999769 -13.99 0.999769 -13.99 0.021417 72.423
6.56200000 0.023068 79.605 0.999732 -14.09 0.999732 -14.09 0.023068 72.208
6.56400000 0.025201 79.605 0.999680 -14.21 0.999680 -14.21 0.025200 71.953
6.56600000 0.028062 79.575 0.999602 -14.38 0.999602 -14.38 0.028061 71.643
6.56800000 0.032102 79.493 0.999478 -14.62 0.999478 -14.62 0.032101 71.250
6.57000000 0.038240 79.306 0.999258 -14.97 0.999258 -14.97 0.038239 70.716
6.57200000 0.048682 78.890 0.998795 -15.58 0.998795 -15.58 0.048681 69.911
6.57400000 0.070390 77.845 0.997472 -16.83 0.997472 -16.83 0.070389 68.425
6.57600000 0.142596 73.873 0.989543 -20.99 0.989543 -20.99 0.142594 63.951
!< P1 F=6.576 Eeff=(5.67078035 -5.1711e-6) Z0=(51.4004406 2.3433e-5) R=0.0098938 C=0.00223192 
!< P2 F=6.576 Eeff=(5.67078035 -5.1711e-6) Z0=(51.4004406 2.3433e-5) R=0.0098938 C=0.00223192 
6.57602000 0.144170 73.783 0.989309 -21.08 0.989309 -21.08 0.144168 63.856
6.57604000 0.145781 73.691 0.989067 -21.18 0.989067 -21.18 0.145779 63.759
6.57606000 0.147430 73.597 0.988816 -21.27 0.988816 -21.27 0.147428 63.659
6.57608000 0.149120 73.500 0.988557 -21.37 0.988557 -21.37 0.149117 63.557
6.57610000 0.150850 73.401 0.988288 -21.47 0.988288 -21.47 0.150848 63.453
6.57612000 0.152623 73.300 0.988009 -21.57 0.988009 -21.57 0.152620 63.346
6.57614000 0.154440 73.196 0.987719 -21.68 0.987719 -21.68 0.154438 63.236
6.57616000 0.156303 73.089 0.987419 -21.79 0.987419 -21.79 0.156301 63.124
6.57618000 0.158213 72.979 0.987107 -21.90 0.987107 -21.90 0.158211 63.009
6.57620000 0.160173 72.867 0.986783 -22.01 0.986783 -22.01 0.160171 62.891
6.57622000 0.162185 72.751 0.986446 -22.13 0.986446 -22.13 0.162182 62.770
6.57624000 0.164250 72.632 0.986095 -22.25 0.986095 -22.25 0.164247 62.646
6.57626000 0.166370 72.510 0.985731 -22.37 0.985731 -22.37 0.166367 62.518
6.57628000 0.168548 72.384 0.985352 -22.50 0.985352 -22.50 0.168545 62.387
6.57630000 0.170786 72.255 0.984957 -22.63 0.984957 -22.63 0.170783 62.252
6.57632000 0.173087 72.122 0.984545 -22.76 0.984545 -22.76 0.173084 62.114
6.57634000 0.175453 71.985 0.984115 -22.90 0.984115 -22.90 0.175450 61.971
6.57636000 0.177886 71.844 0.983667 -23.04 0.983667 -23.04 0.177884 61.825
6.57638000 0.180391 71.699 0.983200 -23.19 0.983200 -23.19 0.180388 61.674
6.57640000 0.182970 71.550 0.982711 -23.34 0.982711 -23.34 0.182967 61.519
6.57642000 0.185626 71.395 0.982200 -23.49 0.982200 -23.49 0.185623 61.360
6.57644000 0.188362 71.236 0.981666 -23.65 0.981666 -23.65 0.188359 61.195
6.57646000 0.191183 71.072 0.981107 -23.82 0.981107 -23.82 0.191180 61.025
6.57648000 0.194092 70.903 0.980521 -23.99 0.980521 -23.99 0.194090 60.850
6.57650000 0.197094 70.728 0.979907 -24.16 0.979907 -24.16 0.197091 60.670
6.57652000 0.200192 70.547 0.979262 -24.34 0.979262 -24.34 0.200189 60.483
6.57654000 0.203392 70.360 0.978586 -24.53 0.978586 -24.53 0.203389 60.291
6.57656000 0.206698 70.166 0.977876 -24.72 0.977876 -24.72 0.206695 60.092
6.57658000 0.210116 69.966 0.977128 -24.92 0.977128 -24.92 0.210113 59.886
6.57660000 0.213651 69.759 0.976342 -25.13 0.976342 -25.13 0.213648 59.673
6.57662000 0.217309 69.544 0.975514 -25.35 0.975514 -25.35 0.217306 59.452
6.57664000 0.221097 69.321 0.974641 -25.57 0.974641 -25.57 0.221093 59.224
6.57666000 0.225021 69.090 0.973719 -25.80 0.973719 -25.80 0.225017 58.987
6.57668000 0.229089 68.850 0.972746 -26.04 0.972746 -26.04 0.229085 58.742
6.57670000 0.233308 68.601 0.971717 -26.29 0.971717 -26.29 0.233304 58.487
6.57672000 0.237687 68.342 0.970628 -26.55 0.970628 -26.55 0.237684 58.222
6.57674000 0.242235 68.073 0.969475 -26.81 0.969475 -26.81 0.242231 57.947
6.57676000 0.246962 67.792 0.968251 -27.09 0.968251 -27.09 0.246958 57.661
6.57678000 0.251877 67.500 0.966952 -27.38 0.966952 -27.38 0.251873 57.363
6.57680000 0.256992 67.196 0.965570 -27.69 0.965570 -27.69 0.256988 57.053
6.57682000 0.262319 66.878 0.964100 -28.00 0.964100 -28.00 0.262315 56.730
6.57684000 0.267871 66.546 0.962533 -28.33 0.962533 -28.33 0.267867 56.392
6.57686000 0.273661 66.200 0.960861 -28.68 0.960861 -28.68 0.273657 56.040
6.57688000 0.279705 65.837 0.959075 -29.04 0.959075 -29.04 0.279701 55.672
6.57690000 0.286019 65.457 0.957163 -29.42 0.957163 -29.42 0.286015 55.286
6.57692000 0.292620 65.059 0.955114 -29.81 0.955114 -29.81 0.292616 54.882
6.57694000 0.299528 64.642 0.952916 -30.23 0.952916 -30.23 0.299523 54.459
6.57696000 0.306762 64.203 0.950552 -30.66 0.950552 -30.66 0.306758 54.015
6.57698000 0.314346 63.742 0.948007 -31.12 0.948007 -31.12 0.314342 53.548
6.57700000 0.322304 63.257 0.945263 -31.60 0.945263 -31.60 0.322299 53.057
6.57702000 0.330661 62.746 0.942297 -32.10 0.942297 -32.10 0.330656 52.540
6.57704000 0.339447 62.207 0.939087 -32.64 0.939087 -32.64 0.339442 51.995
6.57706000 0.348692 61.637 0.935606 -33.20 0.935606 -33.20 0.348687 51.420
6.57708000 0.358431 61.034 0.931824 -33.80 0.931824 -33.80 0.358425 50.811
6.57710000 0.368699 60.396 0.927705 -34.43 0.927705 -34.43 0.368694 50.167
6.57712000 0.379538 59.719 0.923210 -35.10 0.923210 -35.10 0.379532 49.484
6.57714000 0.390991 59.000 0.918294 -35.81 0.918294 -35.81 0.390984 48.759
6.57716000 0.403103 58.235 0.912906 -36.57 0.912906 -36.57 0.403097 47.988
6.57718000 0.415928 57.419 0.906985 -37.37 0.906985 -37.37 0.415922 47.167
6.57720000 0.429520 56.549 0.900463 -38.23 0.900463 -38.23 0.429513 46.291
6.57722000 0.443937 55.619 0.893260 -39.15 0.893260 -39.15 0.443930 45.355
6.57724000 0.459245 54.622 0.885285 -40.13 0.885285 -40.13 0.459237 44.353
6.57726000 0.475509 53.553 0.876432 -41.19 0.876432 -41.19 0.475502 43.278
6.57728000 0.492802 52.404 0.866575 -42.32 0.866575 -42.32 0.492795 42.123
6.57730000 0.511198 51.167 0.855572 -43.54 0.855572 -43.54 0.511190 40.880
6.57732000 0.530772 49.832 0.843254 -44.85 0.843254 -44.85 0.530763 39.539
6.57734000 0.551598 48.389 0.829427 -46.27 0.829427 -46.27 0.551589 38.090
6.57736000 0.573747 46.827 0.813864 -47.81 0.813864 -47.81 0.573738 36.522
6.57738000 0.597283 45.133 0.796300 -49.47 0.796300 -49.47 0.597274 34.822
6.57740000 0.622252 43.293 0.776433 -51.28 0.776433 -51.28 0.622242 32.976
6.57742000 0.648679 41.291 0.753913 -53.24 0.753913 -53.24 0.648669 30.968
6.57744000 0.676550 39.110 0.728342 -55.37 0.728342 -55.37 0.676540 28.782
6.57746000 0.705803 36.734 0.699275 -57.69 0.699275 -57.69 0.705791 26.400
6.57748000 0.736299 34.144 0.666223 -60.21 0.666223 -60.21 0.736288 23.803
6.57750000 0.767808 31.322 0.628662 -62.95 0.628662 -62.95 0.767796 20.975
6.57752000 0.799971 28.250 0.586059 -65.91 0.586059 -65.91 0.799959 17.898
6.57754000 0.832280 24.915 0.537903 -69.11 0.537903 -69.11 0.832267 14.557
6.57756000 0.865172 21.176 0.481746 -72.67 0.481746 -72.67 0.865158 10.811
!< P1 F=6.57756 Eeff=(5.67078043 -5.1715e-6) Z0=(51.4004409 2.3433e-5) R=0.00988462 C=0.00223192 
!< P2 F=6.57756 Eeff=(5.67078043 -5.1715e-6) Z0=(51.4004409 2.3433e-5) R=0.00988462 C=0.00223192 
6.57756100 0.866723 20.988 0.478873 -72.85 0.478873 -72.85 0.866710 10.623
6.57756200 0.868272 20.800 0.475985 -73.03 0.475985 -73.03 0.868258 10.435
6.57756300 0.869817 20.611 0.473082 -73.21 0.473082 -73.21 0.869803 10.245
6.57756400 0.871357 20.422 0.470162 -73.38 0.470162 -73.38 0.871343 10.056
6.57756500 0.872894 20.231 0.467227 -73.56 0.467227 -73.56 0.872880 9.8650
6.57756600 0.874426 20.040 0.464276 -73.74 0.464276 -73.74 0.874413 9.6737
6.57756700 0.875955 19.849 0.461310 -73.92 0.461310 -73.92 0.875941 9.4817
6.57756800 0.877478 19.656 0.458328 -74.10 0.458328 -74.10 0.877464 9.2891
6.57756900 0.878998 19.463 0.455330 -74.29 0.455330 -74.29 0.878984 9.0957
6.57757000 0.880512 19.270 0.452316 -74.47 0.452316 -74.47 0.880498 8.9017
6.57757100 0.882022 19.075 0.449286 -74.65 0.449286 -74.65 0.882008 8.7070
6.57757200 0.883527 18.880 0.446241 -74.83 0.446241 -74.83 0.883513 8.5117
6.57757300 0.885026 18.684 0.443180 -75.01 0.443180 -75.01 0.885012 8.3156
6.57757400 0.886521 18.488 0.440103 -75.20 0.440103 -75.20 0.886507 8.1189
6.57757500 0.888010 18.291 0.437010 -75.38 0.437010 -75.38 0.887996 7.9215
6.57757600 0.889494 18.093 0.433902 -75.57 0.433902 -75.57 0.889480 7.7234
6.57757700 0.890972 17.894 0.430777 -75.75 0.430777 -75.75 0.890958 7.5246
6.57757800 0.892444 17.695 0.427637 -75.94 0.427637 -75.94 0.892430 7.3252
6.57757900 0.893911 17.496 0.424482 -76.12 0.424482 -76.12 0.893896 7.1251
6.57758000 0.895371 17.295 0.421310 -76.31 0.421310 -76.31 0.895357 6.9243
6.57758100 0.896825 17.094 0.418123 -76.50 0.418123 -76.50 0.896811 6.7229
6.57758200 0.898273 16.892 0.414920 -76.68 0.414920 -76.68 0.898259 6.5207
6.57758300 0.899715 16.690 0.411701 -76.87 0.411701 -76.87 0.899700 6.3180
6.57758400 0.901150 16.487 0.408467 -77.06 0.408467 -77.06 0.901135 6.1145
6.57758500 0.902578 16.283 0.405217 -77.25 0.405217 -77.25 0.902563 5.9104
6.57758600 0.903999 16.078 0.401951 -77.43 0.401951 -77.43 0.903985 5.7057
6.57758700 0.905413 15.873 0.398669 -77.62 0.398669 -77.62 0.905399 5.5002
6.57758800 0.906821 15.667 0.395373 -77.81 0.395373 -77.81 0.906806 5.2941
6.57758900 0.908220 15.461 0.392060 -78.00 0.392060 -78.00 0.908206 5.0874
6.57759000 0.909613 15.254 0.388732 -78.19 0.388732 -78.19 0.909598 4.8800
6.57759100 0.910998 15.046 0.385389 -78.38 0.385389 -78.38 0.910983 4.6720
6.57759200 0.912375 14.838 0.382030 -78.57 0.382030 -78.57 0.912360 4.4633
6.57759300 0.913744 14.629 0.378655 -78.76 0.378655 -78.76 0.913729 4.2540
6.57759400 0.915105 14.419 0.375265 -78.95 0.375265 -78.95 0.915091 4.0440
6.57759500 0.916458 14.209 0.371860 -79.14 0.371860 -79.14 0.916443 3.8334
6.57759600 0.917803 13.998 0.368440 -79.33 0.368440 -79.33 0.917788 3.6222
6.57759700 0.919139 13.786 0.365004 -79.53 0.365004 -79.53 0.919124 3.4103
6.57759800 0.920466 13.574 0.361553 -79.72 0.361553 -79.72 0.920452 3.1978
6.57759900 0.921785 13.361 0.358087 -79.91 0.358087 -79.91 0.921770 2.9847
6.57760000 0.923095 13.148 0.354606 -80.10 0.354606 -80.10 0.923080 2.7709
6.57760100 0.924396 12.934 0.351110 -80.29 0.351110 -80.29 0.924381 2.5566
6.57760200 0.925687 12.719 0.347599 -80.48 0.347599 -80.48 0.925672 2.3416
6.57760300 0.926969 12.504 0.344074 -80.68 0.344074 -80.68 0.926954 2.1260
6.57760400 0.928242 12.288 0.340533 -80.87 0.340533 -80.87 0.928227 1.9098
6.57760500 0.929505 12.071 0.336977 -81.06 0.336977 -81.06 0.929490 1.6929
6.57760600 0.930758 11.854 0.333407 -81.25 0.333407 -81.25 0.930743 1.4755
6.57760700 0.932001 11.636 0.329823 -81.45 0.329823 -81.45 0.931986 1.2575
6.57760800 0.933234 11.418 0.326223 -81.64 0.326223 -81.64 0.933219 1.0389
6.57760900 0.934457 11.199 0.322610 -81.83 0.322610 -81.83 0.934442 0.8196
6.57761000 0.935669 10.980 0.318982 -82.02 0.318982 -82.02 0.935654 0.5998
6.57761100 0.936870 10.760 0.315339 -82.21 0.315339 -82.21 0.936856 0.3795
6.57761200 0.938061 10.539 0.311683 -82.41 0.311683 -82.41 0.938046 0.1585
6.57761300 0.939241 10.318 0.308012 -82.60 0.308012 -82.60 0.939226 -0.063
6.57761400 0.940410 10.096 0.304328 -82.79 0.304328 -82.79 0.940395 -0.285
6.57761500 0.941568 9.8735 0.300629 -82.98 0.300629 -82.98 0.941553 -0.508
6.57761600 0.942715 9.6505 0.296917 -83.17 0.296917 -83.17 0.942700 -0.731
6.57761700 0.943850 9.4270 0.293191 -83.36 0.293191 -83.36 0.943835 -0.955
6.57761800 0.944973 9.2030 0.289452 -83.55 0.289452 -83.55 0.944958 -1.179
6.57761900 0.946085 8.9784 0.285699 -83.74 0.285699 -83.74 0.946070 -1.404
6.57762000 0.947184 8.7533 0.281932 -83.93 0.281932 -83.93 0.947169 -1.630
6.57762100 0.948272 8.5276 0.278153 -84.12 0.278153 -84.12 0.948257 -1.856
6.57762200 0.949347 8.3014 0.274360 -84.31 0.274360 -84.31 0.949332 -2.082
6.57762300 0.950410 8.0746 0.270554 -84.49 0.270554 -84.49 0.950395 -2.309
6.57762400 0.951461 7.8474 0.266736 -84.68 0.266736 -84.68 0.951446 -2.537
6.57762500 0.952499 7.6196 0.262904 -84.87 0.262904 -84.87 0.952484 -2.765
6.57762600 0.953524 7.3913 0.259060 -85.05 0.259060 -85.05 0.953509 -2.993
6.57762700 0.954536 7.1625 0.255204 -85.24 0.255204 -85.24 0.954521 -3.222
6.57762800 0.955535 6.9332 0.251335 -85.42 0.251335 -85.42 0.955520 -3.452
6.57762900 0.956521 6.7035 0.247454 -85.60 0.247454 -85.60 0.956506 -3.682
6.57763000 0.957493 6.4732 0.243561 -85.78 0.243561 -85.78 0.957478 -3.913
6.57763100 0.958452 6.2424 0.239656 -85.96 0.239656 -85.96 0.958437 -4.144
6.57763200 0.959398 6.0112 0.235739 -86.14 0.235739 -86.14 0.959382 -4.375
6.57763300 0.960329 5.7795 0.231811 -86.32 0.231811 -86.32 0.960314 -4.607
6.57763400 0.961247 5.5474 0.227871 -86.49 0.227871 -86.49 0.961232 -4.840
6.57763500 0.962150 5.3147 0.223920 -86.67 0.223920 -86.67 0.962135 -5.073
6.57763600 0.963040 5.0817 0.219957 -86.84 0.219957 -86.84 0.963025 -5.306
6.57763700 0.963915 4.8481 0.215984 -87.01 0.215984 -87.01 0.963900 -5.540
6.57763800 0.964776 4.6142 0.212000 -87.18 0.212000 -87.18 0.964760 -5.774
6.57763900 0.965622 4.3798 0.208006 -87.34 0.208006 -87.34 0.965606 -6.009
6.57764000 0.966453 4.1450 0.204001 -87.51 0.204001 -87.51 0.966438 -6.244
6.57764100 0.967270 3.9098 0.199986 -87.67 0.199986 -87.67 0.967254 -6.479
6.57764200 0.968072 3.6741 0.195960 -87.83 0.195960 -87.83 0.968056 -6.715
6.57764300 0.968858 3.4381 0.191925 -87.98 0.191925 -87.98 0.968843 -6.952
6.57764400 0.969630 3.2016 0.187880 -88.13 0.187880 -88.13 0.969614 -7.188
6.57764500 0.970386 2.9648 0.183826 -88.28 0.183826 -88.28 0.970370 -7.426
6.57764600 0.971126 2.7276 0.179763 -88.43 0.179763 -88.43 0.971111 -7.663
6.57764700 0.971852 2.4900 0.175690 -88.57 0.175690 -88.57 0.971836 -7.901
6.57764800 0.972561 2.2520 0.171609 -88.70 0.171609 -88.70 0.972546 -8.139
6.57764900 0.973255 2.0137 0.167519 -88.83 0.167519 -88.83 0.973239 -8.378
6.57765000 0.973933 1.7750 0.163420 -88.96 0.163420 -88.96 0.973917 -8.617
6.57765100 0.974595 1.5360 0.159314 -89.08 0.159314 -89.08 0.974579 -8.856
6.57765200 0.975241 1.2966 0.155200 -89.19 0.155200 -89.19 0.975225 -9.096
6.57765300 0.975870 1.0569 0.151078 -89.30 0.151078 -89.30 0.975855 -9.336
6.57765400 0.976484 0.8169 0.146948 -89.40 0.146948 -89.40 0.976468 -9.576
6.57765500 0.977081 0.5766 0.142812 -89.49 0.142812 -89.49 0.977065 -9.817
6.57765600 0.977661 0.3359 0.138669 -89.58 0.138669 -89.58 0.977646 -10.06
6.57765700 0.978225 0.0950 0.134519 -89.65 0.134519 -89.65 0.978210 -10.30
6.57765800 0.978773 -0.146 0.130363 -89.72 0.130363 -89.72 0.978757 -10.54
6.57765900 0.979303 -0.388 0.126201 -89.77 0.126201 -89.77 0.979287 -10.78
6.57766000 0.979817 -0.630 0.122034 -89.81 0.122034 -89.81 0.979801 -11.02
6.57766100 0.980313 -0.872 0.117862 -89.83 0.117862 -89.83 0.980298 -11.27
6.57766200 0.980793 -1.114 0.113685 -89.84 0.113685 -89.84 0.980778 -11.51
6.57766300 0.981256 -1.357 0.109503 -89.83 0.109503 -89.83 0.981240 -11.75
6.57766400 0.981701 -1.599 0.105318 -89.80 0.105318 -89.80 0.981686 -12.00
6.57766500 0.982129 -1.842 0.101129 -89.75 0.101129 -89.75 0.982114 -12.24
6.57766600 0.982540 -2.086 0.096938 -89.67 0.096938 -89.67 0.982525 -12.48
6.57766700 0.982934 -2.329 0.092744 -89.57 0.092744 -89.57 0.982918 -12.73
6.57766800 0.983310 -2.573 0.088549 -89.43 0.088549 -89.43 0.983294 -12.97
6.57766900 0.983668 -2.817 0.084353 -89.25 0.084353 -89.25 0.983653 -13.21
6.57767000 0.984009 -3.061 0.080157 -89.03 0.080157 -89.03 0.983994 -13.46
6.57767100 0.984333 -3.305 0.075963 -88.75 0.075963 -88.75 0.984317 -13.70
6.57767200 0.984638 -3.550 0.071771 -88.42 0.071771 -88.42 0.984622 -13.95
6.57767300 0.984926 -3.794 0.067584 -88.01 0.067584 -88.01 0.984910 -14.19
6.57767400 0.985196 -4.039 0.063402 -87.51 0.063402 -87.51 0.985180 -14.44
6.57767500 0.985448 -4.284 0.059229 -86.92 0.059229 -86.92 0.985432 -14.68
6.57767600 0.985682 -4.529 0.055067 -86.19 0.055067 -86.19 0.985667 -14.93
6.57767700 0.985899 -4.774 0.050920 -85.31 0.050920 -85.31 0.985883 -15.17
6.57767800 0.986097 -5.019 0.046794 -84.22 0.046794 -84.22 0.986081 -15.42
6.57767900 0.986277 -5.265 0.042695 -82.88 0.042695 -82.88 0.986262 -15.67
6.57768000 0.986440 -5.510 0.038633 -81.20 0.038633 -81.20 0.986424 -15.91
6.57768100 0.986584 -5.756 0.034623 -79.07 0.034623 -79.07 0.986568 -16.16
6.57768200 0.986710 -6.002 0.030686 -76.32 0.030686 -76.32 0.986694 -16.40