! Sonnet Data File
! From: em Version : 14.52
! From Project: RO_2
! Data is De-embedded 
! Data File Written: 01/08/2019 21:17:36
!< HDATE 01/08/2019 00:46:20
!< MDATE 01/08/2019 20:29:06
# GHZ S MA R 50.00000
6.00000000 0.009376 78.958 0.999956 -12.15 0.999956 -12.15 0.009376 76.739
!< P1 F=6.0 Eeff=(5.67080918 -5.1691e-6) Z0=(51.6560295 2.35492e-5) R=0.01071313 C=0.0022568 
!< P2 F=6.0 Eeff=(5.67080918 -5.1691e-6) Z0=(51.6560295 2.35492e-5) R=0.01071313 C=0.0022568 
6.00250000 0.009381 78.954 0.999956 -12.16 0.999956 -12.16 0.009381 76.733
6.00500000 0.009386 78.950 0.999956 -12.16 0.999956 -12.16 0.009386 76.727
6.00750000 0.009392 78.946 0.999956 -12.17 0.999956 -12.17 0.009392 76.721
6.01000000 0.009397 78.941 0.999956 -12.17 0.999956 -12.17 0.009397 76.715
6.01250000 0.009402 78.937 0.999956 -12.18 0.999956 -12.18 0.009402 76.709
6.01500000 0.009407 78.933 0.999956 -12.18 0.999956 -12.18 0.009407 76.703
6.01750000 0.009412 78.929 0.999956 -12.19 0.999956 -12.19 0.009412 76.697
6.02000000 0.009417 78.925 0.999956 -12.19 0.999956 -12.19 0.009417 76.691
6.02250000 0.009422 78.921 0.999956 -12.20 0.999956 -12.20 0.009422 76.685
6.02500000 0.009428 78.916 0.999955 -12.20 0.999955 -12.20 0.009428 76.679
6.02750000 0.009433 78.912 0.999955 -12.21 0.999955 -12.21 0.009433 76.672
6.03000000 0.009438 78.908 0.999955 -12.21 0.999955 -12.21 0.009438 76.666
6.03250000 0.009443 78.904 0.999955 -12.22 0.999955 -12.22 0.009443 76.660
6.03500000 0.009448 78.900 0.999955 -12.22 0.999955 -12.22 0.009448 76.654
6.03750000 0.009454 78.896 0.999955 -12.23 0.999955 -12.23 0.009454 76.648
6.04000000 0.009459 78.891 0.999955 -12.23 0.999955 -12.23 0.009459 76.642
6.04250000 0.009464 78.887 0.999955 -12.24 0.999955 -12.24 0.009464 76.636
6.04500000 0.009469 78.883 0.999955 -12.24 0.999955 -12.24 0.009469 76.630
6.04750000 0.009475 78.879 0.999955 -12.25 0.999955 -12.25 0.009475 76.623
6.05000000 0.009480 78.875 0.999955 -12.25 0.999955 -12.25 0.009480 76.617
6.05250000 0.009485 78.871 0.999955 -12.26 0.999955 -12.26 0.009485 76.611
6.05500000 0.009490 78.867 0.999955 -12.26 0.999955 -12.26 0.009490 76.605
6.05750000 0.009496 78.863 0.999955 -12.27 0.999955 -12.27 0.009496 76.599
6.06000000 0.009501 78.858 0.999955 -12.28 0.999955 -12.28 0.009501 76.593
6.06250000 0.009506 78.854 0.999955 -12.28 0.999955 -12.28 0.009506 76.586
6.06500000 0.009512 78.850 0.999955 -12.29 0.999955 -12.29 0.009512 76.580
6.06750000 0.009517 78.846 0.999955 -12.29 0.999955 -12.29 0.009517 76.574
6.07000000 0.009523 78.842 0.999955 -12.30 0.999955 -12.30 0.009523 76.568
6.07250000 0.009528 78.838 0.999955 -12.30 0.999955 -12.30 0.009528 76.562
6.07500000 0.009533 78.834 0.999954 -12.31 0.999954 -12.31 0.009533 76.556
6.07750000 0.009539 78.830 0.999954 -12.31 0.999954 -12.31 0.009539 76.549
6.08000000 0.009544 78.826 0.999954 -12.32 0.999954 -12.32 0.009544 76.543
6.08250000 0.009550 78.822 0.999954 -12.32 0.999954 -12.32 0.009550 76.537
6.08500000 0.009555 78.817 0.999954 -12.33 0.999954 -12.33 0.009555 76.531
6.08750000 0.009561 78.813 0.999954 -12.33 0.999954 -12.33 0.009561 76.524
6.09000000 0.009566 78.809 0.999954 -12.34 0.999954 -12.34 0.009566 76.518
6.09250000 0.009572 78.805 0.999954 -12.34 0.999954 -12.34 0.009572 76.512
6.09500000 0.009577 78.801 0.999954 -12.35 0.999954 -12.35 0.009577 76.506
6.09750000 0.009583 78.797 0.999954 -12.35 0.999954 -12.35 0.009583 76.499
6.10000000 0.009588 78.793 0.999954 -12.36 0.999954 -12.36 0.009588 76.493
6.10250000 0.009594 78.789 0.999954 -12.36 0.999954 -12.36 0.009594 76.487
6.10500000 0.009599 78.785 0.999954 -12.37 0.999954 -12.37 0.009600 76.481
6.10750000 0.009605 78.781 0.999954 -12.37 0.999954 -12.37 0.009605 76.474
6.11000000 0.009611 78.777 0.999954 -12.38 0.999954 -12.38 0.009611 76.468
6.11250000 0.009616 78.773 0.999954 -12.38 0.999954 -12.38 0.009616 76.462
6.11500000 0.009622 78.769 0.999954 -12.39 0.999954 -12.39 0.009622 76.455
6.11750000 0.009628 78.765 0.999954 -12.39 0.999954 -12.39 0.009628 76.449
6.12000000 0.009633 78.761 0.999954 -12.40 0.999954 -12.40 0.009633 76.443
6.12250000 0.009639 78.757 0.999953 -12.40 0.999953 -12.40 0.009639 76.437
6.12500000 0.009645 78.753 0.999953 -12.41 0.999953 -12.41 0.009645 76.430
6.12750000 0.009651 78.749 0.999953 -12.41 0.999953 -12.41 0.009651 76.424
6.13000000 0.009656 78.745 0.999953 -12.42 0.999953 -12.42 0.009656 76.417
6.13250000 0.009662 78.741 0.999953 -12.42 0.999953 -12.42 0.009662 76.411
6.13500000 0.009668 78.737 0.999953 -12.43 0.999953 -12.43 0.009668 76.405
6.13750000 0.009674 78.733 0.999953 -12.44 0.999953 -12.44 0.009674 76.398
6.14000000 0.009680 78.729 0.999953 -12.44 0.999953 -12.44 0.009680 76.392
6.14250000 0.009685 78.725 0.999953 -12.45 0.999953 -12.45 0.009685 76.386
6.14500000 0.009691 78.721 0.999953 -12.45 0.999953 -12.45 0.009691 76.379
6.14750000 0.009697 78.717 0.999953 -12.46 0.999953 -12.46 0.009697 76.373
6.15000000 0.009703 78.713 0.999953 -12.46 0.999953 -12.46 0.009703 76.366
6.15250000 0.009709 78.709 0.999953 -12.47 0.999953 -12.47 0.009709 76.360
6.15500000 0.009715 78.705 0.999953 -12.47 0.999953 -12.47 0.009715 76.354
6.15750000 0.009721 78.701 0.999953 -12.48 0.999953 -12.48 0.009721 76.347
6.16000000 0.009727 78.697 0.999953 -12.48 0.999953 -12.48 0.009727 76.341
6.16250000 0.009733 78.694 0.999953 -12.49 0.999953 -12.49 0.009733 76.334
6.16500000 0.009739 78.690 0.999953 -12.49 0.999953 -12.49 0.009739 76.328
6.16750000 0.009745 78.686 0.999952 -12.50 0.999952 -12.50 0.009745 76.321
6.17000000 0.009751 78.682 0.999952 -12.50 0.999952 -12.50 0.009751 76.315
6.17250000 0.009757 78.678 0.999952 -12.51 0.999952 -12.51 0.009757 76.308
6.17500000 0.009763 78.674 0.999952 -12.51 0.999952 -12.51 0.009763 76.302
6.17750000 0.009769 78.670 0.999952 -12.52 0.999952 -12.52 0.009769 76.295
6.18000000 0.009776 78.666 0.999952 -12.52 0.999952 -12.52 0.009776 76.289
6.18250000 0.009782 78.662 0.999952 -12.53 0.999952 -12.53 0.009782 76.282
6.18500000 0.009788 78.659 0.999952 -12.53 0.999952 -12.53 0.009788 76.276
6.18750000 0.009794 78.655 0.999952 -12.54 0.999952 -12.54 0.009794 76.269
6.19000000 0.009800 78.651 0.999952 -12.54 0.999952 -12.54 0.009801 76.263
6.19250000 0.009807 78.647 0.999952 -12.55 0.999952 -12.55 0.009807 76.256
6.19500000 0.009813 78.643 0.999952 -12.55 0.999952 -12.55 0.009813 76.250
6.19750000 0.009819 78.640 0.999952 -12.56 0.999952 -12.56 0.009819 76.243
6.20000000 0.009826 78.636 0.999952 -12.56 0.999952 -12.56 0.009826 76.236
6.20250000 0.009832 78.632 0.999952 -12.57 0.999952 -12.57 0.009832 76.230
6.20500000 0.009839 78.628 0.999952 -12.58 0.999952 -12.58 0.009839 76.223
6.20750000 0.009845 78.624 0.999952 -12.58 0.999952 -12.58 0.009845 76.216
6.21000000 0.009852 78.621 0.999951 -12.59 0.999951 -12.59 0.009852 76.210
6.21250000 0.009858 78.617 0.999951 -12.59 0.999951 -12.59 0.009858 76.203
6.21500000 0.009865 78.613 0.999951 -12.60 0.999951 -12.60 0.009865 76.197
6.21750000 0.009871 78.609 0.999951 -12.60 0.999951 -12.60 0.009871 76.190
6.22000000 0.009878 78.606 0.999951 -12.61 0.999951 -12.61 0.009878 76.183
6.22250000 0.009884 78.602 0.999951 -12.61 0.999951 -12.61 0.009884 76.176
6.22500000 0.009891 78.598 0.999951 -12.62 0.999951 -12.62 0.009891 76.170
6.22750000 0.009898 78.594 0.999951 -12.62 0.999951 -12.62 0.009898 76.163
6.23000000 0.009904 78.591 0.999951 -12.63 0.999951 -12.63 0.009905 76.156
6.23250000 0.009911 78.587 0.999951 -12.63 0.999951 -12.63 0.009911 76.149
6.23500000 0.009918 78.583 0.999951 -12.64 0.999951 -12.64 0.009918 76.143
6.23750000 0.009925 78.580 0.999951 -12.64 0.999951 -12.64 0.009925 76.136
6.24000000 0.009932 78.576 0.999951 -12.65 0.999951 -12.65 0.009932 76.129
6.24250000 0.009939 78.572 0.999951 -12.65 0.999951 -12.65 0.009939 76.122
6.24500000 0.009946 78.569 0.999951 -12.66 0.999951 -12.66 0.009946 76.115
6.24750000 0.009953 78.565 0.999950 -12.66 0.999950 -12.66 0.009953 76.109
6.25000000 0.009960 78.561 0.999950 -12.67 0.999950 -12.67 0.009960 76.102
6.25250000 0.009967 78.558 0.999950 -12.67 0.999950 -12.67 0.009967 76.095
6.25500000 0.009974 78.554 0.999950 -12.68 0.999950 -12.68 0.009974 76.088
6.25750000 0.009981 78.551 0.999950 -12.69 0.999950 -12.69 0.009981 76.081
6.26000000 0.009988 78.547 0.999950 -12.69 0.999950 -12.69 0.009988 76.074
6.26250000 0.009995 78.543 0.999950 -12.70 0.999950 -12.70 0.009995 76.067
6.26500000 0.010002 78.540 0.999950 -12.70 0.999950 -12.70 0.010002 76.060
6.26750000 0.010010 78.536 0.999950 -12.71 0.999950 -12.71 0.010010 76.053
6.27000000 0.010017 78.533 0.999950 -12.71 0.999950 -12.71 0.010017 76.046
6.27250000 0.010024 78.529 0.999950 -12.72 0.999950 -12.72 0.010024 76.039
6.27500000 0.010032 78.526 0.999950 -12.72 0.999950 -12.72 0.010032 76.032
6.27750000 0.010039 78.522 0.999950 -12.73 0.999950 -12.73 0.010039 76.025
6.28000000 0.010047 78.519 0.999950 -12.73 0.999950 -12.73 0.010047 76.018
6.28250000 0.010054 78.515 0.999949 -12.74 0.999949 -12.74 0.010054 76.011
6.28500000 0.010062 78.512 0.999949 -12.74 0.999949 -12.74 0.010062 76.004
6.28750000 0.010069 78.509 0.999949 -12.75 0.999949 -12.75 0.010069 75.997
6.29000000 0.010077 78.505 0.999949 -12.75 0.999949 -12.75 0.010077 75.990
6.29250000 0.010085 78.502 0.999949 -12.76 0.999949 -12.76 0.010085 75.983
6.29500000 0.010093 78.498 0.999949 -12.76 0.999949 -12.76 0.010093 75.976
6.29750000 0.010100 78.495 0.999949 -12.77 0.999949 -12.77 0.010100 75.968
6.30000000 0.010108 78.492 0.999949 -12.77 0.999949 -12.77 0.010108 75.961
6.30250000 0.010116 78.488 0.999949 -12.78 0.999949 -12.78 0.010116 75.954
6.30500000 0.010124 78.485 0.999949 -12.79 0.999949 -12.79 0.010124 75.947
6.30750000 0.010132 78.482 0.999949 -12.79 0.999949 -12.79 0.010132 75.939
6.31000000 0.010140 78.478 0.999949 -12.80 0.999949 -12.80 0.010140 75.932
6.31250000 0.010148 78.475 0.999949 -12.80 0.999949 -12.80 0.010149 75.925
6.31500000 0.010157 78.472 0.999948 -12.81 0.999948 -12.81 0.010157 75.917
6.31750000 0.010165 78.468 0.999948 -12.81 0.999948 -12.81 0.010165 75.910
6.32000000 0.010173 78.465 0.999948 -12.82 0.999948 -12.82 0.010173 75.903
6.32250000 0.010182 78.462 0.999948 -12.82 0.999948 -12.82 0.010182 75.895
6.32500000 0.010190 78.459 0.999948 -12.83 0.999948 -12.83 0.010190 75.888
6.32750000 0.010199 78.456 0.999948 -12.83 0.999948 -12.83 0.010199 75.880
6.33000000 0.010207 78.452 0.999948 -12.84 0.999948 -12.84 0.010207 75.873
6.33250000 0.010216 78.449 0.999948 -12.84 0.999948 -12.84 0.010216 75.865
6.33500000 0.010225 78.446 0.999948 -12.85 0.999948 -12.85 0.010225 75.858
6.33750000 0.010234 78.443 0.999948 -12.85 0.999948 -12.85 0.010234 75.850
6.34000000 0.010242 78.440 0.999948 -12.86 0.999948 -12.86 0.010242 75.843
6.34250000 0.010251 78.437 0.999947 -12.87 0.999947 -12.87 0.010251 75.835
6.34500000 0.010260 78.434 0.999947 -12.87 0.999947 -12.87 0.010260 75.827
6.34750000 0.010270 78.431 0.999947 -12.88 0.999947 -12.88 0.010270 75.820
6.35000000 0.010279 78.428 0.999947 -12.88 0.999947 -12.88 0.010279 75.812
6.35250000 0.010288 78.425 0.999947 -12.89 0.999947 -12.89 0.010288 75.804
6.35500000 0.010297 78.422 0.999947 -12.89 0.999947 -12.89 0.010297 75.796
6.35750000 0.010307 78.419 0.999947 -12.90 0.999947 -12.90 0.010307 75.789
6.36000000 0.010316 78.416 0.999947 -12.90 0.999947 -12.90 0.010316 75.781
6.36250000 0.010326 78.413 0.999947 -12.91 0.999947 -12.91 0.010326 75.773
6.36500000 0.010336 78.410 0.999947 -12.91 0.999947 -12.91 0.010336 75.765
6.36750000 0.010345 78.407 0.999947 -12.92 0.999947 -12.92 0.010345 75.757
6.37000000 0.010355 78.405 0.999946 -12.92 0.999946 -12.92 0.010355 75.749
6.37250000 0.010365 78.402 0.999946 -12.93 0.999946 -12.93 0.010365 75.741
6.37500000 0.010375 78.399 0.999946 -12.94 0.999946 -12.94 0.010375 75.733
6.37750000 0.010386 78.396 0.999946 -12.94 0.999946 -12.94 0.010386 75.725
6.38000000 0.010396 78.394 0.999946 -12.95 0.999946 -12.95 0.010396 75.717
6.38250000 0.010406 78.391 0.999946 -12.95 0.999946 -12.95 0.010406 75.708
6.38500000 0.010417 78.388 0.999946 -12.96 0.999946 -12.96 0.010417 75.700
6.38750000 0.010427 78.386 0.999946 -12.96 0.999946 -12.96 0.010427 75.692
6.39000000 0.010438 78.383 0.999946 -12.97 0.999946 -12.97 0.010438 75.684
6.39250000 0.010449 78.380 0.999945 -12.97 0.999945 -12.97 0.010449 75.675
6.39500000 0.010460 78.378 0.999945 -12.98 0.999945 -12.98 0.010460 75.667
6.39750000 0.010471 78.375 0.999945 -12.98 0.999945 -12.98 0.010471 75.658
6.40000000 0.010482 78.373 0.999945 -12.99 0.999945 -12.99 0.010482 75.650
6.40250000 0.010493 78.370 0.999945 -13.00 0.999945 -13.00 0.010494 75.641
6.40500000 0.010505 78.368 0.999945 -13.00 0.999945 -13.00 0.010505 75.633
6.40750000 0.010517 78.366 0.999945 -13.01 0.999945 -13.01 0.010517 75.624
6.41000000 0.010528 78.363 0.999945 -13.01 0.999945 -13.01 0.010528 75.615
6.41250000 0.010540 78.361 0.999945 -13.02 0.999945 -13.02 0.010540 75.607
6.41500000 0.010552 78.359 0.999944 -13.02 0.999944 -13.02 0.010552 75.598
6.41750000 0.010564 78.357 0.999944 -13.03 0.999944 -13.03 0.010564 75.589
6.42000000 0.010577 78.355 0.999944 -13.03 0.999944 -13.03 0.010577 75.580
6.42250000 0.010589 78.352 0.999944 -13.04 0.999944 -13.04 0.010589 75.571
6.42500000 0.010602 78.350 0.999944 -13.05 0.999944 -13.05 0.010602 75.562
6.42750000 0.010615 78.348 0.999944 -13.05 0.999944 -13.05 0.010615 75.553
6.43000000 0.010628 78.346 0.999944 -13.06 0.999944 -13.06 0.010628 75.544
6.43250000 0.010641 78.344 0.999943 -13.06 0.999943 -13.06 0.010641 75.534
6.43500000 0.010655 78.342 0.999943 -13.07 0.999943 -13.07 0.010655 75.525
6.43750000 0.010668 78.341 0.999943 -13.07 0.999943 -13.07 0.010668 75.516
6.44000000 0.010682 78.339 0.999943 -13.08 0.999943 -13.08 0.010682 75.506
6.44250000 0.010696 78.337 0.999943 -13.08 0.999943 -13.08 0.010696 75.497
6.44500000 0.010710 78.335 0.999943 -13.09 0.999943 -13.09 0.010710 75.487
6.44750000 0.010724 78.334 0.999943 -13.10 0.999943 -13.10 0.010725 75.477
6.45000000 0.010739 78.332 0.999942 -13.10 0.999942 -13.10 0.010739 75.468
6.45250000 0.010754 78.330 0.999942 -13.11 0.999942 -13.11 0.010754 75.458
6.45500000 0.010769 78.329 0.999942 -13.11 0.999942 -13.11 0.010769 75.448
6.45750000 0.010784 78.328 0.999942 -13.12 0.999942 -13.12 0.010784 75.438
6.46000000 0.010800 78.326 0.999942 -13.12 0.999942 -13.12 0.010800 75.428
6.46250000 0.010816 78.325 0.999942 -13.13 0.999942 -13.13 0.010816 75.418
6.46500000 0.010832 78.324 0.999941 -13.14 0.999941 -13.14 0.010832 75.407
6.46750000 0.010848 78.323 0.999941 -13.14 0.999941 -13.14 0.010848 75.397
6.47000000 0.010865 78.321 0.999941 -13.15 0.999941 -13.15 0.010865 75.386
6.47250000 0.010882 78.320 0.999941 -13.15 0.999941 -13.15 0.010882 75.376
6.47500000 0.010899 78.319 0.999941 -13.16 0.999941 -13.16 0.010899 75.365
6.47750000 0.010917 78.319 0.999940 -13.17 0.999940 -13.17 0.010917 75.354
6.48000000 0.010935 78.318 0.999940 -13.17 0.999940 -13.17 0.010935 75.343
6.48250000 0.010953 78.317 0.999940 -13.18 0.999940 -13.18 0.010953 75.332
6.48500000 0.010972 78.316 0.999940 -13.18 0.999940 -13.18 0.010972 75.321
6.48750000 0.010991 78.316 0.999940 -13.19 0.999940 -13.19 0.010991 75.310
6.49000000 0.011010 78.315 0.999939 -13.19 0.999939 -13.19 0.011010 75.298
6.49250000 0.011030 78.315 0.999939 -13.20 0.999939 -13.20 0.011030 75.287
6.49500000 0.011050 78.315 0.999939 -13.21 0.999939 -13.21 0.011050 75.275
6.49750000 0.011071 78.315 0.999939 -13.21 0.999939 -13.21 0.011071 75.263
6.50000000 0.011092 78.315 0.999939 -13.22 0.999939 -13.22 0.011092 75.251
6.50250000 0.011113 78.315 0.999938 -13.22 0.999938 -13.22 0.011114 75.239
6.50500000 0.011136 78.315 0.999938 -13.23 0.999938 -13.23 0.011136 75.227
6.50750000 0.011158 78.315 0.999938 -13.24 0.999938 -13.24 0.011158 75.214
6.51000000 0.011181 78.315 0.999938 -13.24 0.999938 -13.24 0.011181 75.202
6.51250000 0.011205 78.316 0.999937 -13.25 0.999937 -13.25 0.011205 75.189
6.51500000 0.011229 78.316 0.999937 -13.26 0.999937 -13.26 0.011229 75.176
6.51750000 0.011254 78.317 0.999937 -13.26 0.999937 -13.26 0.011254 75.162
6.52000000 0.011279 78.318 0.999937 -13.27 0.999937 -13.27 0.011279 75.149
6.52250000 0.011305 78.319 0.999936 -13.27 0.999936 -13.27 0.011305 75.135
6.52500000 0.011332 78.320 0.999936 -13.28 0.999936 -13.28 0.011332 75.121
6.52750000 0.011359 78.321 0.999936 -13.29 0.999936 -13.29 0.011359 75.107
6.53000000 0.011387 78.323 0.999935 -13.29 0.999935 -13.29 0.011387 75.093
6.53250000 0.011416 78.324 0.999935 -13.30 0.999935 -13.30 0.011416 75.078
6.53500000 0.011446 78.326 0.999935 -13.31 0.999935 -13.31 0.011446 75.064
6.53750000 0.011476 78.328 0.999934 -13.31 0.999934 -13.31 0.011476 75.048
6.54000000 0.011508 78.330 0.999934 -13.32 0.999934 -13.32 0.011508 75.033
6.54250000 0.011540 78.333 0.999934 -13.33 0.999934 -13.33 0.011540 75.017
6.54500000 0.011573 78.335 0.999933 -13.33 0.999933 -13.33 0.011573 75.001
6.54750000 0.011608 78.338 0.999933 -13.34 0.999933 -13.34 0.011608 74.985
6.55000000 0.011643 78.341 0.999932 -13.35 0.999932 -13.35 0.011643 74.968
6.55250000 0.011680 78.344 0.999932 -13.35 0.999932 -13.35 0.011680 74.951
6.55500000 0.011718 78.347 0.999931 -13.36 0.999931 -13.36 0.011718 74.934
6.55750000 0.011757 78.351 0.999931 -13.37 0.999931 -13.37 0.011757 74.916
6.56000000 0.011798 78.355 0.999931 -13.38 0.999931 -13.38 0.011798 74.898
6.56250000 0.011840 78.359 0.999930 -13.38 0.999930 -13.38 0.011840 74.879
6.56500000 0.011883 78.363 0.999930 -13.39 0.999930 -13.39 0.011883 74.860
6.56750000 0.011928 78.368 0.999929 -13.40 0.999929 -13.40 0.011928 74.841
6.57000000 0.011975 78.373 0.999928 -13.40 0.999928 -13.40 0.011975 74.821
6.57250000 0.012024 78.378 0.999928 -13.41 0.999928 -13.41 0.012024 74.800
6.57500000 0.012075 78.384 0.999927 -13.42 0.999927 -13.42 0.012075 74.779
6.57750000 0.012127 78.390 0.999927 -13.43 0.999927 -13.43 0.012127 74.757
6.58000000 0.012182 78.396 0.999926 -13.44 0.999926 -13.44 0.012182 74.735
6.58250000 0.012240 78.403 0.999925 -13.44 0.999925 -13.44 0.012240 74.712
6.58500000 0.012299 78.410 0.999925 -13.45 0.999925 -13.45 0.012299 74.688
6.58750000 0.012362 78.418 0.999924 -13.46 0.999924 -13.46 0.012362 74.663
6.59000000 0.012428 78.426 0.999923 -13.47 0.999923 -13.47 0.012428 74.638
6.59250000 0.012496 78.434 0.999922 -13.48 0.999922 -13.48 0.012496 74.612
6.59500000 0.012569 78.443 0.999921 -13.49 0.999921 -13.49 0.012569 74.585
6.59750000 0.012644 78.453 0.999920 -13.50 0.999920 -13.50 0.012645 74.557
6.60000000 0.012724 78.463 0.999919 -13.51 0.999919 -13.51 0.012724 74.528
6.60250000 0.012809 78.474 0.999918 -13.52 0.999918 -13.52 0.012809 74.498
6.60500000 0.012898 78.485 0.999917 -13.53 0.999917 -13.53 0.012898 74.467
6.60750000 0.012992 78.497 0.999916 -13.54 0.999916 -13.54 0.012992 74.434
6.61000000 0.013092 78.510 0.999914 -13.55 0.999914 -13.55 0.013092 74.400
6.61250000 0.013197 78.523 0.999913 -13.56 0.999913 -13.56 0.013198 74.365
6.61500000 0.013310 78.538 0.999912 -13.57 0.999912 -13.57 0.013310 74.328
6.61750000 0.013431 78.553 0.999910 -13.58 0.999910 -13.58 0.013431 74.289
6.62000000 0.013559 78.569 0.999908 -13.59 0.999908 -13.59 0.013559 74.249
6.62250000 0.013697 78.586 0.999906 -13.61 0.999906 -13.61 0.013697 74.206
6.62500000 0.013845 78.604 0.999904 -13.62 0.999904 -13.62 0.013845 74.161
6.62750000 0.014005 78.623 0.999902 -13.63 0.999902 -13.63 0.014005 74.114
6.63000000 0.014178 78.644 0.999900 -13.65 0.999900 -13.65 0.014178 74.064
6.63250000 0.014365 78.665 0.999897 -13.66 0.999897 -13.66 0.014365 74.011
6.63500000 0.014569 78.688 0.999894 -13.68 0.999894 -13.68 0.014570 73.955
6.63750000 0.014793 78.713 0.999891 -13.70 0.999891 -13.70 0.014793 73.895
6.64000000 0.015038 78.739 0.999887 -13.72 0.999887 -13.72 0.015038 73.831
6.64250000 0.015308 78.766 0.999883 -13.74 0.999883 -13.74 0.015309 73.763
6.64500000 0.015609 78.795 0.999878 -13.76 0.999878 -13.76 0.015609 73.690
6.64750000 0.015944 78.826 0.999873 -13.78 0.999873 -13.78 0.015944 73.610
6.65000000 0.016320 78.859 0.999867 -13.81 0.999867 -13.81 0.016320 73.525
6.65250000 0.016746 78.893 0.999860 -13.84 0.999860 -13.84 0.016746 73.431
6.65500000 0.017233 78.929 0.999851 -13.87 0.999851 -13.87 0.017233 73.329
6.65750000 0.017794 78.967 0.999842 -13.91 0.999842 -13.91 0.017794 73.217
6.66000000 0.018447 79.007 0.999830 -13.95 0.999830 -13.95 0.018447 73.093
6.66250000 0.019219 79.047 0.999815 -14.00 0.999815 -14.00 0.019219 72.954
6.66500000 0.020143 79.087 0.999797 -14.06 0.999797 -14.06 0.020143 72.797
6.66750000 0.021273 79.126 0.999773 -14.13 0.999773 -14.13 0.021273 72.618
6.67000000 0.022689 79.157 0.999741 -14.21 0.999741 -14.21 0.022688 72.407
!< P1 F=6.67 Eeff=(5.67079767 -5.1706e-6) Z0=(51.6559363 2.3554e-5) R=0.00963865 C=0.0022568 
!< P2 F=6.67 Eeff=(5.67079767 -5.1706e-6) Z0=(51.6559363 2.3554e-5) R=0.00963865 C=0.0022568 
6.67020000 0.022817 79.160 0.999738 -14.22 0.999738 -14.22 0.022817 72.389
6.67040000 0.022948 79.162 0.999735 -14.23 0.999735 -14.23 0.022947 72.371
6.67060000 0.023081 79.164 0.999731 -14.24 0.999731 -14.24 0.023081 72.352
6.67080000 0.023217 79.167 0.999728 -14.25 0.999728 -14.25 0.023217 72.334
6.67100000 0.023356 79.169 0.999725 -14.25 0.999725 -14.25 0.023356 72.315
6.67120000 0.023498 79.171 0.999722 -14.26 0.999722 -14.26 0.023498 72.295
6.67140000 0.023644 79.173 0.999718 -14.27 0.999718 -14.27 0.023643 72.276
6.67160000 0.023792 79.175 0.999715 -14.28 0.999715 -14.28 0.023792 72.256
6.67180000 0.023943 79.177 0.999711 -14.29 0.999711 -14.29 0.023943 72.236
6.67200000 0.024098 79.178 0.999707 -14.30 0.999707 -14.30 0.024098 72.215
6.67220000 0.024256 79.180 0.999703 -14.31 0.999703 -14.31 0.024256 72.194
6.67240000 0.024418 79.181 0.999699 -14.32 0.999699 -14.32 0.024418 72.173
6.67260000 0.024584 79.183 0.999695 -14.33 0.999695 -14.33 0.024584 72.152
6.67280000 0.024753 79.184 0.999691 -14.34 0.999691 -14.34 0.024753 72.130
6.67300000 0.024927 79.185 0.999687 -14.35 0.999687 -14.35 0.024927 72.108
6.67320000 0.025104 79.186 0.999682 -14.36 0.999682 -14.36 0.025104 72.086
6.67340000 0.025286 79.187 0.999677 -14.37 0.999677 -14.37 0.025286 72.063
6.67360000 0.025472 79.188 0.999673 -14.38 0.999673 -14.38 0.025472 72.040
6.67380000 0.025663 79.189 0.999668 -14.39 0.999668 -14.39 0.025663 72.016
6.67400000 0.025858 79.189 0.999663 -14.40 0.999663 -14.40 0.025858 71.992
6.67420000 0.026059 79.190 0.999657 -14.41 0.999657 -14.41 0.026059 71.968
6.67440000 0.026264 79.190 0.999652 -14.43 0.999652 -14.43 0.026264 71.943
6.67460000 0.026475 79.190 0.999646 -14.44 0.999646 -14.44 0.026475 71.918
6.67480000 0.026692 79.189 0.999640 -14.45 0.999640 -14.45 0.026692 71.893
6.67500000 0.026914 79.189 0.999634 -14.47 0.999634 -14.47 0.026914 71.867
6.67520000 0.027142 79.188 0.999628 -14.48 0.999628 -14.48 0.027142 71.840
6.67540000 0.027376 79.187 0.999621 -14.49 0.999621 -14.49 0.027376 71.813
6.67560000 0.027617 79.186 0.999615 -14.51 0.999615 -14.51 0.027617 71.786
6.67580000 0.027865 79.185 0.999608 -14.52 0.999608 -14.52 0.027865 71.757
6.67600000 0.028120 79.183 0.999601 -14.54 0.999601 -14.54 0.028119 71.729
6.67620000 0.028382 79.181 0.999593 -14.55 0.999593 -14.55 0.028381 71.700
6.67640000 0.028651 79.179 0.999585 -14.57 0.999585 -14.57 0.028651 71.670
6.67660000 0.028929 79.176 0.999577 -14.58 0.999577 -14.58 0.028929 71.640
6.67680000 0.029215 79.173 0.999569 -14.60 0.999569 -14.60 0.029215 71.609
6.67700000 0.029510 79.170 0.999560 -14.62 0.999560 -14.62 0.029510 71.577
6.67720000 0.029814 79.166 0.999551 -14.64 0.999551 -14.64 0.029814 71.545
6.67740000 0.030128 79.162 0.999541 -14.65 0.999541 -14.65 0.030128 71.512
6.67760000 0.030451 79.158 0.999531 -14.67 0.999531 -14.67 0.030451 71.478
6.67780000 0.030786 79.153 0.999521 -14.69 0.999521 -14.69 0.030786 71.443
6.67800000 0.031131 79.147 0.999510 -14.71 0.999510 -14.71 0.031131 71.408
6.67820000 0.031488 79.141 0.999499 -14.73 0.999499 -14.73 0.031488 71.372
6.67840000 0.031858 79.135 0.999487 -14.76 0.999487 -14.76 0.031857 71.335
6.67860000 0.032240 79.128 0.999474 -14.78 0.999474 -14.78 0.032240 71.297
6.67880000 0.032636 79.120 0.999461 -14.80 0.999461 -14.80 0.032635 71.258
6.67900000 0.033046 79.111 0.999447 -14.82 0.999447 -14.82 0.033046 71.218
6.67920000 0.033471 79.102 0.999433 -14.85 0.999433 -14.85 0.033471 71.177
6.67940000 0.033912 79.093 0.999418 -14.87 0.999418 -14.87 0.033912 71.135
6.67960000 0.034371 79.082 0.999402 -14.90 0.999402 -14.90 0.034370 71.092
6.67980000 0.034847 79.070 0.999385 -14.93 0.999385 -14.93 0.034846 71.047
6.68000000 0.035342 79.058 0.999368 -14.96 0.999368 -14.96 0.035341 71.001
6.68020000 0.035857 79.045 0.999349 -14.99 0.999349 -14.99 0.035856 70.954
6.68040000 0.036393 79.030 0.999329 -15.02 0.999329 -15.02 0.036393 70.906
6.68060000 0.036952 79.015 0.999308 -15.05 0.999308 -15.05 0.036952 70.856
6.68080000 0.037536 78.998 0.999286 -15.09 0.999286 -15.09 0.037535 70.804
6.68100000 0.038145 78.980 0.999263 -15.12 0.999263 -15.12 0.038144 70.751
6.68120000 0.038781 78.960 0.999238 -15.16 0.999238 -15.16 0.038781 70.696
6.68140000 0.039448 78.939 0.999211 -15.20 0.999211 -15.20 0.039447 70.638
6.68160000 0.040145 78.917 0.999183 -15.24 0.999183 -15.24 0.040145 70.579
6.68180000 0.040877 78.892 0.999153 -15.28 0.999153 -15.28 0.040876 70.518
6.68200000 0.041645 78.866 0.999120 -15.32 0.999120 -15.32 0.041644 70.454
6.68220000 0.042452 78.838 0.999086 -15.37 0.999086 -15.37 0.042451 70.388
6.68240000 0.043301 78.807 0.999049 -15.42 0.999049 -15.42 0.043300 70.319
6.68260000 0.044196 78.775 0.999009 -15.47 0.999009 -15.47 0.044195 70.248
6.68280000 0.045140 78.739 0.998966 -15.53 0.998966 -15.53 0.045139 70.173
6.68300000 0.046138 78.701 0.998919 -15.58 0.998919 -15.58 0.046137 70.095
6.68320000 0.047194 78.659 0.998869 -15.64 0.998869 -15.64 0.047193 70.013
6.68340000 0.048313 78.614 0.998815 -15.71 0.998815 -15.71 0.048313 69.927
6.68360000 0.049502 78.565 0.998755 -15.78 0.998755 -15.78 0.049502 69.837
6.68380000 0.050768 78.512 0.998690 -15.85 0.998690 -15.85 0.050767 69.742
6.68400000 0.052116 78.455 0.998620 -15.93 0.998620 -15.93 0.052116 69.643
6.68420000 0.053557 78.392 0.998542 -16.01 0.998542 -16.01 0.053557 69.537
6.68440000 0.055100 78.324 0.998456 -16.10 0.998456 -16.10 0.055100 69.425
6.68460000 0.056757 78.250 0.998362 -16.20 0.998362 -16.20 0.056756 69.307
6.68480000 0.058539 78.168 0.998257 -16.30 0.998257 -16.30 0.058538 69.181
6.68500000 0.060463 78.079 0.998140 -16.41 0.998140 -16.41 0.060462 69.046
6.68520000 0.062545 77.980 0.998009 -16.53 0.998009 -16.53 0.062544 68.902
6.68540000 0.064806 77.872 0.997862 -16.66 0.997862 -16.66 0.064805 68.747
6.68560000 0.067270 77.752 0.997695 -16.80 0.997695 -16.80 0.067269 68.580
6.68580000 0.069965 77.618 0.997506 -16.96 0.997506 -16.96 0.069964 68.399
6.68600000 0.072927 77.470 0.997290 -17.13 0.997290 -17.13 0.072926 68.202
6.68620000 0.076195 77.304 0.997040 -17.31 0.997040 -17.31 0.076194 67.987
6.68640000 0.079821 77.118 0.996751 -17.52 0.996751 -17.52 0.079820 67.751
6.68660000 0.083865 76.907 0.996411 -17.76 0.996411 -17.76 0.083864 67.490
6.68680000 0.088406 76.668 0.996010 -18.02 0.996010 -18.02 0.088405 67.200
6.68700000 0.093540 76.395 0.995531 -18.31 0.995531 -18.31 0.093538 66.875
6.68720000 0.099390 76.080 0.994952 -18.65 0.994952 -18.65 0.099388 66.508
6.68740000 0.106116 75.714 0.994242 -19.04 0.994242 -19.04 0.106115 66.089
6.68760000 0.113932 75.284 0.993358 -19.49 0.993358 -19.49 0.113930 65.605
6.68780000 0.123122 74.775 0.992237 -20.02 0.992237 -20.02 0.123120 65.041
6.68800000 0.134081 74.161 0.990784 -20.65 0.990784 -20.65 0.134079 64.372
6.68820000 0.147369 73.411 0.988853 -21.42 0.988853 -21.42 0.147367 63.565
6.68840000 0.163805 72.474 0.986205 -22.38 0.986205 -22.38 0.163802 62.571
6.68860000 0.184637 71.275 0.982434 -23.59 0.982434 -23.59 0.184634 61.314
6.68880000 0.211856 69.694 0.976800 -25.18 0.976800 -25.18 0.211853 59.673
6.68900000 0.248822 67.519 0.967842 -27.36 0.967842 -27.36 0.248818 57.439
6.68920000 0.301598 64.362 0.952363 -30.50 0.952363 -30.50 0.301593 54.221
6.68940000 0.382374 59.399 0.922201 -35.43 0.922201 -35.43 0.382367 49.196
!< P1 F=6.6894 Eeff=(5.67079733 -5.171e-6) Z0=(51.6559334 2.35492e-5) R=0.00961528 C=0.0022568 
!< P2 F=6.6894 Eeff=(5.67079733 -5.171e-6) Z0=(51.6559334 2.35492e-5) R=0.00961528 C=0.0022568 
6.68940500 0.384914 59.240 0.921118 -35.59 0.921118 -35.59 0.384908 49.035
6.68941000 0.387486 59.078 0.920014 -35.75 0.920014 -35.75 0.387480 48.872
6.68941500 0.390091 58.915 0.918887 -35.91 0.918887 -35.91 0.390084 48.707
6.68942000 0.392728 58.749 0.917736 -36.08 0.917736 -36.08 0.392722 48.540
6.68942500 0.395399 58.581 0.916561 -36.24 0.916561 -36.24 0.395393 48.370
6.68943000 0.398104 58.410 0.915362 -36.41 0.915362 -36.41 0.398098 48.198
6.68943500 0.400844 58.237 0.914137 -36.58 0.914137 -36.58 0.400837 48.024
6.68944000 0.403619 58.062 0.912887 -36.76 0.912887 -36.76 0.403613 47.847
6.68944500 0.406430 57.884 0.911609 -36.93 0.911609 -36.93 0.406423 47.667
6.68945000 0.409278 57.704 0.910304 -37.11 0.910304 -37.11 0.409271 47.485
6.68945500 0.412162 57.521 0.908971 -37.29 0.908971 -37.29 0.412155 47.300
6.68946000 0.415084 57.335 0.907609 -37.48 0.907609 -37.48 0.415077 47.113
6.68946500 0.418045 57.146 0.906217 -37.66 0.906217 -37.66 0.418038 46.923
6.68947000 0.421044 56.955 0.904795 -37.85 0.904795 -37.85 0.421037 46.730
6.68947500 0.424084 56.761 0.903341 -38.04 0.903341 -38.04 0.424076 46.534
6.68948000 0.427163 56.564 0.901854 -38.24 0.901854 -38.24 0.427156 46.336
6.68948500 0.430284 56.364 0.900334 -38.44 0.900334 -38.44 0.430277 46.134
6.68949000 0.433446 56.160 0.898780 -38.64 0.898780 -38.64 0.433439 45.929
6.68949500 0.436651 55.954 0.897191 -38.84 0.897191 -38.84 0.436643 45.722
6.68950000 0.439899 55.745 0.895566 -39.05 0.895566 -39.05 0.439891 45.511
6.68950500 0.443190 55.532 0.893903 -39.26 0.893903 -39.26 0.443183 45.297
6.68951000 0.446527 55.316 0.892202 -39.47 0.892202 -39.47 0.446519 45.079
6.68951500 0.449908 55.097 0.890461 -39.69 0.890461 -39.69 0.449901 44.858