! Sonnet Data File
! From: em Version : 14.52
! From Project: RO_3
! Data is De-embedded 
! Data File Written: 01/09/2019 02:08:32
!< HDATE 01/08/2019 16:51:33
!< MDATE 01/09/2019 01:55:57
# GHZ S MA R 50.00000
6.50000000 0.010379 78.043 0.999946 -13.19 0.999946 -13.19 0.010379 75.580
!< P1 F=6.5 Eeff=(5.67079447 -5.1701e-6) Z0=(51.6071174 2.35299e-5) R=0.00991323 C=0.00225121 
!< P2 F=6.5 Eeff=(5.67079447 -5.1701e-6) Z0=(51.6071174 2.35299e-5) R=0.00991323 C=0.00225121 
6.50200000 0.010388 78.041 0.999946 -13.19 0.999946 -13.19 0.010388 75.573
6.50400000 0.010397 78.039 0.999946 -13.20 0.999946 -13.20 0.010397 75.566
6.50600000 0.010406 78.037 0.999946 -13.20 0.999946 -13.20 0.010406 75.560
6.50800000 0.010416 78.034 0.999946 -13.21 0.999946 -13.21 0.010416 75.553
6.51000000 0.010425 78.032 0.999946 -13.21 0.999946 -13.21 0.010425 75.546
6.51200000 0.010435 78.030 0.999945 -13.22 0.999945 -13.22 0.010435 75.539
6.51400000 0.010444 78.028 0.999945 -13.22 0.999945 -13.22 0.010444 75.532
6.51600000 0.010454 78.026 0.999945 -13.22 0.999945 -13.22 0.010454 75.526
6.51800000 0.010463 78.024 0.999945 -13.23 0.999945 -13.23 0.010463 75.519
6.52000000 0.010473 78.022 0.999945 -13.23 0.999945 -13.23 0.010473 75.512
6.52200000 0.010483 78.020 0.999945 -13.24 0.999945 -13.24 0.010483 75.505
6.52400000 0.010493 78.019 0.999945 -13.24 0.999945 -13.24 0.010493 75.498
6.52600000 0.010503 78.017 0.999945 -13.25 0.999945 -13.25 0.010503 75.491
6.52800000 0.010514 78.015 0.999945 -13.25 0.999945 -13.25 0.010514 75.484
6.53000000 0.010524 78.013 0.999945 -13.26 0.999945 -13.26 0.010524 75.477
6.53200000 0.010534 78.011 0.999944 -13.26 0.999944 -13.26 0.010534 75.469
6.53400000 0.010545 78.009 0.999944 -13.26 0.999944 -13.26 0.010545 75.462
6.53600000 0.010556 78.008 0.999944 -13.27 0.999944 -13.27 0.010556 75.455
6.53800000 0.010566 78.006 0.999944 -13.27 0.999944 -13.27 0.010566 75.448
6.54000000 0.010577 78.004 0.999944 -13.28 0.999944 -13.28 0.010577 75.440
6.54200000 0.010588 78.003 0.999944 -13.28 0.999944 -13.28 0.010588 75.433
6.54400000 0.010600 78.001 0.999944 -13.29 0.999944 -13.29 0.010600 75.426
6.54600000 0.010611 77.999 0.999944 -13.29 0.999944 -13.29 0.010611 75.418
6.54800000 0.010622 77.998 0.999943 -13.30 0.999943 -13.30 0.010622 75.411
6.55000000 0.010634 77.996 0.999943 -13.30 0.999943 -13.30 0.010634 75.403
6.55200000 0.010646 77.995 0.999943 -13.31 0.999943 -13.31 0.010646 75.396
6.55400000 0.010658 77.993 0.999943 -13.31 0.999943 -13.31 0.010658 75.388
6.55600000 0.010670 77.992 0.999943 -13.31 0.999943 -13.31 0.010670 75.380
6.55800000 0.010682 77.990 0.999943 -13.32 0.999943 -13.32 0.010682 75.373
6.56000000 0.010694 77.989 0.999943 -13.32 0.999943 -13.32 0.010694 75.365
6.56200000 0.010707 77.988 0.999943 -13.33 0.999943 -13.33 0.010707 75.357
6.56400000 0.010720 77.986 0.999942 -13.33 0.999942 -13.33 0.010720 75.349
6.56600000 0.010732 77.985 0.999942 -13.34 0.999942 -13.34 0.010732 75.341
6.56800000 0.010746 77.984 0.999942 -13.34 0.999942 -13.34 0.010746 75.333
6.57000000 0.010759 77.983 0.999942 -13.35 0.999942 -13.35 0.010759 75.325
6.57200000 0.010772 77.981 0.999942 -13.35 0.999942 -13.35 0.010772 75.317
6.57400000 0.010786 77.980 0.999942 -13.36 0.999942 -13.36 0.010786 75.309
6.57600000 0.010800 77.979 0.999942 -13.36 0.999942 -13.36 0.010800 75.300
6.57800000 0.010814 77.978 0.999941 -13.37 0.999941 -13.37 0.010814 75.292
6.58000000 0.010828 77.977 0.999941 -13.37 0.999941 -13.37 0.010828 75.284
6.58200000 0.010842 77.976 0.999941 -13.37 0.999941 -13.37 0.010842 75.275
6.58400000 0.010857 77.975 0.999941 -13.38 0.999941 -13.38 0.010857 75.267
6.58600000 0.010872 77.974 0.999941 -13.38 0.999941 -13.38 0.010872 75.258
6.58800000 0.010887 77.974 0.999941 -13.39 0.999941 -13.39 0.010887 75.249
6.59000000 0.010902 77.973 0.999940 -13.39 0.999940 -13.39 0.010902 75.241
6.59200000 0.010918 77.972 0.999940 -13.40 0.999940 -13.40 0.010918 75.232
6.59400000 0.010933 77.972 0.999940 -13.40 0.999940 -13.40 0.010933 75.223
6.59600000 0.010950 77.971 0.999940 -13.41 0.999940 -13.41 0.010950 75.214
6.59800000 0.010966 77.970 0.999940 -13.41 0.999940 -13.41 0.010966 75.205
6.60000000 0.010982 77.970 0.999940 -13.42 0.999940 -13.42 0.010982 75.196
6.60200000 0.010999 77.970 0.999939 -13.42 0.999939 -13.42 0.010999 75.186
6.60400000 0.011017 77.969 0.999939 -13.43 0.999939 -13.43 0.011017 75.177
6.60600000 0.011034 77.969 0.999939 -13.43 0.999939 -13.43 0.011034 75.167
6.60800000 0.011052 77.969 0.999939 -13.44 0.999939 -13.44 0.011052 75.158
6.61000000 0.011070 77.968 0.999939 -13.44 0.999939 -13.44 0.011070 75.148
6.61200000 0.011089 77.968 0.999938 -13.45 0.999938 -13.45 0.011089 75.139
6.61400000 0.011107 77.968 0.999938 -13.45 0.999938 -13.45 0.011107 75.129
6.61600000 0.011127 77.968 0.999938 -13.46 0.999938 -13.46 0.011127 75.119
6.61800000 0.011146 77.968 0.999938 -13.46 0.999938 -13.46 0.011146 75.109
6.62000000 0.011166 77.969 0.999938 -13.47 0.999938 -13.47 0.011166 75.098
6.62200000 0.011186 77.969 0.999937 -13.47 0.999937 -13.47 0.011186 75.088
6.62400000 0.011207 77.969 0.999937 -13.48 0.999937 -13.48 0.011207 75.078
6.62600000 0.011228 77.969 0.999937 -13.48 0.999937 -13.48 0.011228 75.067
6.62800000 0.011250 77.970 0.999937 -13.49 0.999937 -13.49 0.011250 75.056
6.63000000 0.011272 77.970 0.999936 -13.49 0.999936 -13.49 0.011272 75.045
6.63200000 0.011294 77.971 0.999936 -13.50 0.999936 -13.50 0.011294 75.034
6.63400000 0.011317 77.972 0.999936 -13.50 0.999936 -13.50 0.011317 75.023
6.63600000 0.011341 77.973 0.999936 -13.51 0.999936 -13.51 0.011341 75.012
6.63800000 0.011365 77.974 0.999935 -13.51 0.999935 -13.51 0.011365 75.001
6.64000000 0.011390 77.975 0.999935 -13.52 0.999935 -13.52 0.011390 74.989
6.64200000 0.011415 77.976 0.999935 -13.52 0.999935 -13.52 0.011415 74.977
6.64400000 0.011440 77.977 0.999934 -13.53 0.999934 -13.53 0.011440 74.965
6.64600000 0.011467 77.978 0.999934 -13.53 0.999934 -13.53 0.011467 74.953
6.64800000 0.011494 77.980 0.999934 -13.54 0.999934 -13.54 0.011494 74.941
6.65000000 0.011521 77.981 0.999934 -13.55 0.999934 -13.55 0.011521 74.928
6.65200000 0.011550 77.983 0.999933 -13.55 0.999933 -13.55 0.011550 74.916
6.65400000 0.011579 77.985 0.999933 -13.56 0.999933 -13.56 0.011579 74.903
6.65600000 0.011609 77.987 0.999933 -13.56 0.999933 -13.56 0.011609 74.890
6.65800000 0.011639 77.989 0.999932 -13.57 0.999932 -13.57 0.011639 74.876
6.66000000 0.011671 77.991 0.999932 -13.57 0.999932 -13.57 0.011671 74.863
6.66200000 0.011703 77.993 0.999931 -13.58 0.999931 -13.58 0.011703 74.849
6.66400000 0.011736 77.996 0.999931 -13.59 0.999931 -13.59 0.011736 74.835
6.66600000 0.011770 77.999 0.999931 -13.59 0.999931 -13.59 0.011770 74.820
6.66800000 0.011806 78.001 0.999930 -13.60 0.999930 -13.60 0.011806 74.806
6.67000000 0.011842 78.004 0.999930 -13.60 0.999930 -13.60 0.011842 74.791
6.67200000 0.011879 78.008 0.999929 -13.61 0.999929 -13.61 0.011879 74.776
6.67400000 0.011917 78.011 0.999929 -13.61 0.999929 -13.61 0.011917 74.760
6.67600000 0.011957 78.014 0.999928 -13.62 0.999928 -13.62 0.011957 74.744
6.67800000 0.011998 78.018 0.999928 -13.63 0.999928 -13.63 0.011998 74.728
6.68000000 0.012040 78.022 0.999927 -13.63 0.999927 -13.63 0.012040 74.712
6.68200000 0.012084 78.026 0.999927 -13.64 0.999927 -13.64 0.012084 74.695
6.68400000 0.012129 78.030 0.999926 -13.65 0.999926 -13.65 0.012129 74.678
6.68600000 0.012175 78.035 0.999926 -13.65 0.999926 -13.65 0.012175 74.660
6.68800000 0.012223 78.040 0.999925 -13.66 0.999925 -13.66 0.012223 74.642
6.69000000 0.012273 78.045 0.999925 -13.67 0.999925 -13.67 0.012273 74.624
6.69200000 0.012325 78.050 0.999924 -13.67 0.999924 -13.67 0.012325 74.605
6.69400000 0.012379 78.055 0.999923 -13.68 0.999923 -13.68 0.012379 74.585
6.69600000 0.012435 78.061 0.999923 -13.69 0.999923 -13.69 0.012435 74.565
6.69800000 0.012493 78.067 0.999922 -13.69 0.999922 -13.69 0.012493 74.545
6.70000000 0.012553 78.073 0.999921 -13.70 0.999921 -13.70 0.012553 74.524
6.70200000 0.012616 78.080 0.999920 -13.71 0.999920 -13.71 0.012616 74.502
6.70400000 0.012681 78.087 0.999919 -13.72 0.999919 -13.72 0.012681 74.480
6.70600000 0.012749 78.094 0.999919 -13.72 0.999919 -13.72 0.012749 74.457
6.70800000 0.012821 78.102 0.999918 -13.73 0.999918 -13.73 0.012821 74.433
6.71000000 0.012895 78.110 0.999917 -13.74 0.999917 -13.74 0.012895 74.409
6.71200000 0.012973 78.118 0.999916 -13.75 0.999916 -13.75 0.012973 74.384
6.71400000 0.013055 78.127 0.999915 -13.76 0.999915 -13.76 0.013055 74.358
6.71600000 0.013140 78.136 0.999913 -13.77 0.999913 -13.77 0.013140 74.331
6.71800000 0.013230 78.146 0.999912 -13.78 0.999912 -13.78 0.013230 74.303
6.72000000 0.013325 78.156 0.999911 -13.78 0.999911 -13.78 0.013325 74.274
6.72200000 0.013425 78.167 0.999910 -13.79 0.999910 -13.79 0.013425 74.245
6.72400000 0.013530 78.178 0.999908 -13.80 0.999908 -13.80 0.013530 74.214
6.72600000 0.013641 78.189 0.999907 -13.81 0.999907 -13.81 0.013641 74.181
6.72800000 0.013759 78.202 0.999905 -13.83 0.999905 -13.83 0.013759 74.148
6.73000000 0.013884 78.214 0.999903 -13.84 0.999903 -13.84 0.013884 74.113
6.73200000 0.014016 78.228 0.999902 -13.85 0.999902 -13.85 0.014016 74.077
6.73400000 0.014157 78.242 0.999900 -13.86 0.999900 -13.86 0.014157 74.039
6.73600000 0.014308 78.256 0.999897 -13.87 0.999897 -13.87 0.014308 73.999
6.73800000 0.014469 78.272 0.999895 -13.89 0.999895 -13.89 0.014469 73.957
6.74000000 0.014641 78.288 0.999893 -13.90 0.999893 -13.90 0.014641 73.913
6.74200000 0.014827 78.305 0.999890 -13.91 0.999890 -13.91 0.014827 73.867
6.74400000 0.015026 78.322 0.999887 -13.93 0.999887 -13.93 0.015026 73.819
6.74600000 0.015242 78.341 0.999883 -13.95 0.999883 -13.95 0.015242 73.768
6.74800000 0.015477 78.360 0.999880 -13.96 0.999880 -13.96 0.015477 73.714
6.75000000 0.015732 78.380 0.999876 -13.98 0.999876 -13.98 0.015732 73.656
6.75200000 0.016010 78.401 0.999871 -14.00 0.999871 -14.00 0.016010 73.596
6.75400000 0.016316 78.423 0.999866 -14.02 0.999866 -14.02 0.016316 73.531
6.75600000 0.016653 78.446 0.999861 -14.05 0.999861 -14.05 0.016653 73.461
6.75800000 0.017026 78.469 0.999854 -14.07 0.999854 -14.07 0.017026 73.387
6.76000000 0.017443 78.493 0.999847 -14.10 0.999847 -14.10 0.017443 73.307
6.76200000 0.017910 78.518 0.999839 -14.13 0.999839 -14.13 0.017909 73.220
6.76400000 0.018437 78.543 0.999829 -14.16 0.999829 -14.16 0.018437 73.127
6.76600000 0.019037 78.568 0.999818 -14.20 0.999818 -14.20 0.019037 73.024
6.76800000 0.019728 78.593 0.999804 -14.25 0.999804 -14.25 0.019728 72.912
6.77000000 0.020529 78.617 0.999788 -14.29 0.999788 -14.29 0.020529 72.788
6.77200000 0.021472 78.638 0.999768 -14.35 0.999768 -14.35 0.021472 72.650
6.77400000 0.022596 78.656 0.999743 -14.42 0.999743 -14.42 0.022596 72.494
6.77600000 0.023961 78.667 0.999711 -14.50 0.999711 -14.50 0.023961 72.317
6.77800000 0.025652 78.668 0.999668 -14.60 0.999668 -14.60 0.025652 72.112
6.78000000 0.027804 78.653 0.999610 -14.73 0.999610 -14.73 0.027803 71.871
6.78200000 0.030633 78.610 0.999526 -14.90 0.999526 -14.90 0.030633 71.578
6.78400000 0.034521 78.518 0.999397 -15.12 0.999397 -15.12 0.034521 71.211
6.78600000 0.040199 78.339 0.999181 -15.45 0.999181 -15.45 0.040198 70.724
6.78800000 0.049272 77.981 0.998768 -15.98 0.998768 -15.98 0.049272 70.022
6.79000000 0.066096 77.194 0.997776 -16.95 0.997776 -16.95 0.066095 68.847
!< P1 F=6.79 Eeff=(5.6707891 -5.1699e-6) Z0=(51.607075 2.3525e-5) R=0.00950338 C=0.00225121 
!< P2 F=6.79 Eeff=(5.6707891 -5.1699e-6) Z0=(51.607075 2.3525e-5) R=0.00950338 C=0.00225121 
6.79005000 0.066702 77.164 0.997735 -16.98 0.997735 -16.98 0.066701 68.806
6.79010000 0.067321 77.133 0.997692 -17.02 0.997692 -17.02 0.067320 68.765
6.79015000 0.067953 77.101 0.997649 -17.05 0.997649 -17.05 0.067953 68.723
6.79020000 0.068600 77.069 0.997603 -17.09 0.997603 -17.09 0.068599 68.680
6.79025000 0.069261 77.036 0.997557 -17.13 0.997557 -17.13 0.069261 68.636
6.79030000 0.069938 77.001 0.997509 -17.17 0.997509 -17.17 0.069937 68.591
6.79035000 0.070630 76.966 0.997459 -17.21 0.997459 -17.21 0.070629 68.546
6.79040000 0.071338 76.930 0.997408 -17.25 0.997408 -17.25 0.071337 68.499
6.79045000 0.072062 76.894 0.997354 -17.29 0.997354 -17.29 0.072062 68.452
6.79050000 0.072804 76.856 0.997299 -17.33 0.997299 -17.33 0.072803 68.403
6.79055000 0.073564 76.817 0.997243 -17.38 0.997243 -17.38 0.073563 68.354
6.79060000 0.074342 76.777 0.997184 -17.42 0.997184 -17.42 0.074342 68.303
6.79065000 0.075140 76.736 0.997123 -17.47 0.997123 -17.47 0.075139 68.251
6.79070000 0.075957 76.694 0.997059 -17.52 0.997059 -17.52 0.075957 68.198
6.79075000 0.076796 76.650 0.996994 -17.56 0.996994 -17.56 0.076795 68.144
6.79080000 0.077655 76.605 0.996926 -17.61 0.996926 -17.61 0.077654 68.088
6.79085000 0.078537 76.560 0.996855 -17.66 0.996855 -17.66 0.078536 68.032
6.79090000 0.079443 76.512 0.996782 -17.72 0.996782 -17.72 0.079442 67.973
6.79095000 0.080372 76.464 0.996706 -17.77 0.996706 -17.77 0.080371 67.914
6.79100000 0.081326 76.414 0.996627 -17.82 0.996627 -17.82 0.081325 67.853
6.79105000 0.082307 76.362 0.996545 -17.88 0.996545 -17.88 0.082306 67.790
6.79110000 0.083315 76.309 0.996460 -17.94 0.996460 -17.94 0.083314 67.726
6.79115000 0.084351 76.254 0.996371 -18.00 0.996371 -18.00 0.084350 67.660
6.79120000 0.085417 76.197 0.996278 -18.06 0.996278 -18.06 0.085415 67.592
6.79125000 0.086513 76.139 0.996181 -18.12 0.996181 -18.12 0.086512 67.523
6.79130000 0.087642 76.079 0.996081 -18.19 0.996081 -18.19 0.087641 67.451
6.79135000 0.088804 76.017 0.995975 -18.26 0.995975 -18.26 0.088803 67.378
6.79140000 0.090002 75.953 0.995866 -18.32 0.995866 -18.32 0.090001 67.302
6.79145000 0.091236 75.886 0.995751 -18.40 0.995751 -18.40 0.091235 67.225
6.79150000 0.092509 75.818 0.995631 -18.47 0.995631 -18.47 0.092508 67.145
6.79155000 0.093822 75.747 0.995506 -18.54 0.995506 -18.54 0.093821 67.063
6.79160000 0.095178 75.674 0.995374 -18.62 0.995374 -18.62 0.095177 66.978
6.79165000 0.096578 75.598 0.995236 -18.70 0.995236 -18.70 0.096576 66.890
6.79170000 0.098024 75.519 0.995092 -18.79 0.995092 -18.79 0.098023 66.800
6.79175000 0.099519 75.438 0.994941 -18.87 0.994941 -18.87 0.099518 66.707
6.79180000 0.101066 75.353 0.994781 -18.96 0.994781 -18.96 0.101064 66.611
6.79185000 0.102666 75.266 0.994614 -19.05 0.994614 -19.05 0.102665 66.512
6.79190000 0.104324 75.175 0.994438 -19.15 0.994438 -19.15 0.104323 66.410
6.79195000 0.106042 75.081 0.994252 -19.25 0.994252 -19.25 0.106040 66.303
6.79200000 0.107822 74.983 0.994056 -19.35 0.994056 -19.35 0.107821 66.194
6.79205000 0.109670 74.881 0.993850 -19.46 0.993850 -19.46 0.109669 66.080
6.79210000 0.111589 74.775 0.993632 -19.57 0.993632 -19.57 0.111587 65.962
6.79215000 0.113582 74.664 0.993401 -19.68 0.993401 -19.68 0.113580 65.840
6.79220000 0.115654 74.549 0.993157 -19.80 0.993157 -19.80 0.115653 65.713
6.79225000 0.117811 74.429 0.992898 -19.93 0.992898 -19.93 0.117809 65.581
6.79230000 0.120057 74.304 0.992623 -20.06 0.992623 -20.06 0.120055 65.443
6.79235000 0.122397 74.173 0.992331 -20.19 0.992331 -20.19 0.122396 65.301
6.79240000 0.124839 74.036 0.992020 -20.33 0.992020 -20.33 0.124837 65.152
6.79245000 0.127388 73.893 0.991689 -20.48 0.991689 -20.48 0.127386 64.997
6.79250000 0.130052 73.744 0.991336 -20.64 0.991336 -20.64 0.130050 64.835
6.79255000 0.132838 73.587 0.990958 -20.80 0.990958 -20.80 0.132836 64.665
6.79260000 0.135756 73.422 0.990554 -20.97 0.990554 -20.97 0.135754 64.489
6.79265000 0.138814 73.249 0.990121 -21.14 0.990121 -21.14 0.138812 64.303
6.79270000 0.142023 73.067 0.989656 -21.33 0.989656 -21.33 0.142021 64.109
6.79275000 0.145394 72.876 0.989155 -21.52 0.989155 -21.52 0.145392 63.905
6.79280000 0.148940 72.674 0.988616 -21.73 0.988616 -21.73 0.148938 63.691
6.79285000 0.152675 72.461 0.988033 -21.95 0.988033 -21.95 0.152673 63.466
6.79290000 0.156613 72.236 0.987403 -22.17 0.987403 -22.17 0.156611 63.228
6.79295000 0.160773 71.998 0.986720 -22.42 0.986720 -22.42 0.160770 62.977
6.79300000 0.165172 71.746 0.985977 -22.67 0.985977 -22.67 0.165169 62.713
6.79305000 0.169831 71.478 0.985167 -22.94 0.985167 -22.94 0.169829 62.432
6.79310000 0.174775 71.193 0.984283 -23.23 0.984283 -23.23 0.174772 62.135
6.79315000 0.180029 70.890 0.983314 -23.54 0.983314 -23.54 0.180027 61.818
6.79320000 0.185623 70.566 0.982250 -23.86 0.982250 -23.86 0.185621 61.482
6.79325000 0.191592 70.220 0.981078 -24.21 0.981078 -24.21 0.191589 61.123
6.79330000 0.197972 69.849 0.979782 -24.58 0.979782 -24.58 0.197969 60.739
6.79335000 0.204807 69.451 0.978345 -24.98 0.978345 -24.98 0.204804 60.328
6.79340000 0.212146 69.022 0.976744 -25.41 0.976744 -25.41 0.212143 59.886
6.79345000 0.220046 68.559 0.974955 -25.88 0.974955 -25.88 0.220043 59.410
6.79350000 0.228571 68.058 0.972948 -26.38 0.972948 -26.38 0.228568 58.896
6.79355000 0.237798 67.514 0.970684 -26.92 0.970684 -26.92 0.237794 58.339
6.79360000 0.247812 66.922 0.968119 -27.51 0.968119 -27.51 0.247808 57.733
6.79365000 0.258716 66.274 0.965197 -28.16 0.965197 -28.16 0.258712 57.073
6.79370000 0.270628 65.564 0.961850 -28.87 0.961850 -28.87 0.270624 56.349
6.79375000 0.283688 64.782 0.957994 -29.65 0.957994 -29.65 0.283684 55.554
6.79380000 0.298062 63.917 0.953519 -30.51 0.953519 -30.51 0.298058 54.675
6.79385000 0.313947 62.955 0.948290 -31.46 0.948290 -31.46 0.313942 53.700
6.79390000 0.331576 61.880 0.942132 -32.53 0.942132 -32.53 0.331571 52.612
6.79395000 0.351230 60.673 0.934818 -33.73 0.934818 -33.73 0.351225 51.391
6.79400000 0.373246 59.308 0.926050 -35.08 0.926050 -35.08 0.373240 50.012
6.79405000 0.398026 57.754 0.915431 -36.62 0.915431 -36.62 0.398020 48.445
6.79410000 0.426054 55.973 0.902432 -38.38 0.902432 -38.38 0.426047 46.651
6.79415000 0.457901 53.916 0.886329 -40.42 0.886329 -40.42 0.457894 44.579
6.79420000 0.494232 51.519 0.866131 -42.78 0.866131 -42.78 0.494224 42.169
6.79425000 0.535790 48.703 0.840465 -45.56 0.840465 -45.56 0.535782 39.339
6.79430000 0.583339 45.365 0.807419 -48.85 0.807419 -48.85 0.583330 35.986
6.79435000 0.637521 41.375 0.764347 -52.77 0.764347 -52.77 0.637511 31.983
6.79440000 0.698542 36.578 0.707660 -57.47 0.707660 -57.47 0.698532 27.172
6.79445000 0.765613 30.786 0.632671 -63.12 0.632671 -63.12 0.765601 21.366
!< P1 F=6.79445 Eeff=(5.67078909 -5.1705e-6) Z0=(51.6070747 2.3525e-5) R=0.00949911 C=0.00225121 
!< P2 F=6.79445 Eeff=(5.67078909 -5.1705e-6) Z0=(51.6070747 2.3525e-5) R=0.00949911 C=0.00225121 
6.79445200 0.768390 30.531 0.629214 -63.37 0.629214 -63.37 0.768379 21.111
6.79445400 0.771173 30.274 0.625720 -63.62 0.625720 -63.62 0.771162 20.853
6.79445600 0.773961 30.015 0.622186 -63.87 0.622186 -63.87 0.773949 20.594
6.79445800 0.776753 29.755 0.618614 -64.12 0.618614 -64.12 0.776741 20.332
6.79446000 0.779550 29.492 0.615003 -64.38 0.615003 -64.38 0.779538 20.069
6.79446200 0.782350 29.228 0.611351 -64.63 0.611351 -64.63 0.782338 19.804
6.79446400 0.785155 28.961 0.607660 -64.89 0.607660 -64.89 0.785143 19.537
6.79446600 0.787962 28.692 0.603929 -65.15 0.603929 -65.15 0.787950 19.268
6.79446800 0.790773 28.422 0.600157 -65.42 0.600157 -65.42 0.790760 18.997
6.79447000 0.793586 28.150 0.596343 -65.68 0.596343 -65.68 0.793574 18.724
6.79447200 0.796401 27.875 0.592489 -65.94 0.592489 -65.94 0.796389 18.449
6.79447400 0.799218 27.599 0.588593 -66.21 0.588593 -66.21 0.799206 18.172
6.79447600 0.802037 27.320 0.584654 -66.48 0.584654 -66.48 0.802025 17.893
6.79447800 0.804857 27.040 0.580674 -66.75 0.580674 -66.75 0.804845 17.612
6.79448000 0.807678 26.758 0.576650 -67.03 0.576650 -67.03 0.807665 17.329
6.79448200 0.810499 26.473 0.572584 -67.30 0.572584 -67.30 0.810486 17.044
6.79448400 0.813320 26.187 0.568475 -67.58 0.568475 -67.58 0.813307 16.757
6.79448600 0.816140 25.898 0.564321 -67.85 0.564321 -67.85 0.816128 16.468
6.79448800 0.818960 25.608 0.560124 -68.14 0.560124 -68.14 0.818947 16.177
6.79449000 0.821778 25.315 0.555883 -68.42 0.555883 -68.42 0.821765 15.884
6.79449200 0.824594 25.020 0.551597 -68.70 0.551597 -68.70 0.824581 15.588
6.79449400 0.827407 24.723 0.547267 -68.99 0.547267 -68.99 0.827395 15.291
6.79449600 0.830218 24.425 0.542891 -69.27 0.542891 -69.27 0.830205 14.992
6.79449800 0.833026 24.124 0.538471 -69.56 0.538471 -69.56 0.833013 14.690
6.79450000 0.835829 23.821 0.534004 -69.85 0.534004 -69.85 0.835817 14.387
6.79450200 0.838629 23.516 0.529492 -70.15 0.529492 -70.15 0.838616 14.081
6.79450400 0.841423 23.209 0.524934 -70.44 0.524934 -70.44 0.841410 13.773
6.79450600 0.844212 22.899 0.520329 -70.74 0.520329 -70.74 0.844199 13.464
6.79450800 0.846995 22.588 0.515678 -71.04 0.515678 -71.04 0.846982 13.152
6.79451000 0.849771 22.275 0.510981 -71.34 0.510981 -71.34 0.849758 12.838
6.79451200 0.852541 21.959 0.506236 -71.64 0.506236 -71.64 0.852527 12.522
6.79451400 0.855302 21.641 0.501444 -71.94 0.501444 -71.94 0.855289 12.203
6.79451600 0.858055 21.322 0.496605 -72.25 0.496605 -72.25 0.858042 11.883
6.79451800 0.860800 21.000 0.491719 -72.55 0.491719 -72.55 0.860786 11.561
6.79452000 0.863534 20.676 0.486785 -72.86 0.486785 -72.86 0.863521 11.236
6.79452200 0.866259 20.350 0.481803 -73.17 0.481803 -73.17 0.866246 10.909
6.79452400 0.868973 20.022 0.476774 -73.48 0.476774 -73.48 0.868959 10.581
6.79452600 0.871675 19.691 0.471696 -73.80 0.471696 -73.80 0.871662 10.250
6.79452800 0.874365 19.359 0.466570 -74.11 0.466570 -74.11 0.874352 9.9169
6.79453000 0.877043 19.025 0.461397 -74.43 0.461397 -74.43 0.877029 9.5819
6.79453200 0.879707 18.688 0.456174 -74.75 0.456174 -74.75 0.879693 9.2448
6.79453400 0.882356 18.349 0.450904 -75.07 0.450904 -75.07 0.882343 8.9056
6.79453600 0.884991 18.009 0.445585 -75.39 0.445585 -75.39 0.884978 8.5642
6.79453800 0.887611 17.666 0.440218 -75.71 0.440218 -75.71 0.887597 8.2209
6.79454000 0.890214 17.321 0.434803 -76.03 0.434803 -76.03 0.890200 7.8754
6.79454200 0.892800 16.974 0.429339 -76.36 0.429339 -76.36 0.892786 7.5278
6.79454400 0.895369 16.625 0.423827 -76.69 0.423827 -76.69 0.895355 7.1782
6.79454600 0.897919 16.274 0.418267 -77.02 0.418267 -77.02 0.897905 6.8266
6.79454800 0.900449 15.921 0.412658 -77.34 0.412658 -77.34 0.900436 6.4729
6.79455000 0.902960 15.565 0.407002 -77.68 0.407002 -77.68 0.902946 6.1171
6.79455200 0.905450 15.208 0.401297 -78.01 0.401297 -78.01 0.905436 5.7594
6.79455400 0.907919 14.849 0.395545 -78.34 0.395545 -78.34 0.907905 5.3996
6.79455600 0.910365 14.488 0.389745 -78.67 0.389745 -78.67 0.910351 5.0378
6.79455800 0.912789 14.125 0.383897 -79.01 0.383897 -79.01 0.912775 4.6740
6.79456000 0.915188 13.759 0.378002 -79.35 0.378002 -79.35 0.915174 4.3083
6.79456200 0.917563 13.392 0.372060 -79.68 0.372060 -79.68 0.917549 3.9405
6.79456400 0.919912 13.023 0.366071 -80.02 0.366071 -80.02 0.919898 3.5708
6.79456600 0.922235 12.652 0.360035 -80.36 0.360035 -80.36 0.922221 3.1992
6.79456800 0.924532 12.279 0.353953 -80.70 0.353953 -80.70 0.924517 2.8257
6.79457000 0.926800 11.904 0.347825 -81.04 0.347825 -81.04 0.926786 2.4502
6.79457200 0.929040 11.527 0.341651 -81.38 0.341651 -81.38 0.929025 2.0729
6.79457400 0.931250 11.149 0.335432 -81.72 0.335432 -81.72 0.931236 1.6937
6.79457600 0.933430 10.768 0.329168 -82.06 0.329168 -82.06 0.933416 1.3126
6.79457800 0.935579 10.386 0.322860 -82.40 0.322860 -82.40 0.935564 0.9298
6.79458000 0.937696 10.002 0.316507 -82.74 0.316507 -82.74 0.937682 0.5451
6.79458200 0.939780 9.6160 0.310111 -83.08 0.310111 -83.08 0.939766 0.1586
6.79458400 0.941831 9.2283 0.303671 -83.42 0.303671 -83.42 0.941817 -0.230
6.79458600 0.943848 8.8389 0.297189 -83.76 0.297189 -83.76 0.943833 -0.620
6.79458800 0.945830 8.4478 0.290665 -84.10 0.290665 -84.10 0.945815 -1.011
6.79459000 0.947775 8.0550 0.284099 -84.44 0.284099 -84.44 0.947761 -1.405
6.79459200 0.949684 7.6606 0.277493 -84.77 0.277493 -84.77 0.949670 -1.800
6.79459400 0.951556 7.2645 0.270846 -85.11 0.270846 -85.11 0.951541 -2.196
6.79459600 0.953389 6.8668 0.264159 -85.44 0.264159 -85.44 0.953375 -2.595
6.79459800 0.955184 6.4675 0.257434 -85.77 0.257434 -85.77 0.955169 -2.994
6.79460000 0.956938 6.0667 0.250670 -86.10 0.250670 -86.10 0.956923 -3.396
6.79460200 0.958652 5.6643 0.243869 -86.43 0.243869 -86.43 0.958637 -3.799
6.79460400 0.960325 5.2605 0.237031 -86.75 0.237031 -86.75 0.960310 -4.203
6.79460600 0.961956 4.8552 0.230157 -87.07 0.230157 -87.07 0.961941 -4.609
6.79460800 0.963544 4.4485 0.223248 -87.38 0.223248 -87.38 0.963529 -5.016
6.79461000 0.965088 4.0404 0.216304 -87.69 0.216304 -87.69 0.965074 -5.425
6.79461200 0.966589 3.6310 0.209328 -88.00 0.209328 -88.00 0.966574 -5.835
6.79461400 0.968044 3.2202 0.202319 -88.30 0.202319 -88.30 0.968029 -6.246
6.79461600 0.969454 2.8082 0.195278 -88.59 0.195278 -88.59 0.969439 -6.659
6.79461800 0.970818 2.3949 0.188207 -88.87 0.188207 -88.87 0.970803 -7.073
6.79462000 0.972135 1.9804 0.181107 -89.14 0.181107 -89.14 0.972120 -7.488
6.79462200 0.973405 1.5648 0.173978 -89.41 0.173978 -89.41 0.973390 -7.904
6.79462400 0.974627 1.1480 0.166822 -89.66 0.166822 -89.66 0.974611 -8.321
6.79462600 0.975799 0.7301 0.159640 -89.89 0.159640 -89.89 0.975784 -8.740
6.79462800 0.976923 0.3112 0.152433 -90.11 0.152433 -90.11 0.976908 -9.159
6.79463000 0.977997 -0.109 0.145203 -90.31 0.145203 -90.31 0.977982 -9.580
6.79463200 0.979021 -0.530 0.137951 -90.49 0.137951 -90.49 0.979005 -10.00
6.79463400 0.979993 -0.951 0.130678 -90.64 0.130678 -90.64 0.979978 -10.42
6.79463600 0.980915 -1.374 0.123387 -90.75 0.123387 -90.75 0.980900 -10.85
6.79463800 0.981784 -1.798 0.116078 -90.83 0.116078 -90.83 0.981769 -11.27
6.79464000 0.982602 -2.222 0.108754 -90.87 0.108754 -90.87 0.982587 -11.70
6.79464200 0.983366 -2.647 0.101416 -90.84 0.101416 -90.84 0.983351 -12.12
6.79464400 0.984078 -3.073 0.094069 -90.75 0.094069 -90.75 0.984063 -12.55
6.79464600 0.984736 -3.499 0.086713 -90.57 0.086713 -90.57 0.984721 -12.97
6.79464800 0.985341 -3.926 0.079354 -90.27 0.079354 -90.27 0.985325 -13.40
6.79465000 0.985891 -4.354 0.071996 -89.83 0.071996 -89.83 0.985876 -13.83
6.79465200 0.986387 -4.782 0.064646 -89.19 0.064646 -89.19 0.986372 -14.26
6.79465400 0.986828 -5.211 0.057312 -88.27 0.057312 -88.27 0.986813 -14.69
6.79465600 0.987214 -5.640 0.050009 -86.96 0.050009 -86.96 0.987199 -15.12
6.79465800 0.987545 -6.069 0.042759 -85.05 0.042759 -85.05 0.987530 -15.55
6.79466000 0.987821 -6.499 0.035601 -82.19 0.035601 -82.19 0.987806 -15.98
6.79466200 0.988041 -6.929 0.028612 -77.70 0.028612 -77.70 0.988026 -16.41
6.79466400 0.988206 -7.359 0.021963 -70.13 0.021963 -70.13 0.988191 -16.84
6.79466600 0.988315 -7.789 0.016088 -56.23 0.016088 -56.23 0.988299 -17.27
6.79466800 0.988368 -8.220 0.012176 -30.14 0.012176 -30.14 0.988352 -17.70
6.79467000 0.988365 -8.651 0.012279 5.2498 0.012279 5.2498 0.988349 -18.13
!< P1 F=6.79467 Eeff=(5.6707891 -5.1703e-6) Z0=(51.6070747 2.35299e-5) R=0.00948759 C=0.00225121 
!< P2 F=6.79467 Eeff=(5.6707891 -5.1703e-6) Z0=(51.6070747 2.35299e-5) R=0.00948759 C=0.00225121 
6.79467200 0.988306 -9.080 0.016301 30.631 0.016301 30.631 0.988291 -18.56
6.79467400 0.988192 -9.509 0.022199 44.136 0.022199 44.136 0.988177 -18.99
6.79467600 0.988023 -9.937 0.028844 51.528 0.028844 51.528 0.988007 -19.42
6.79467800 0.987798 -10.37 0.035819 55.936 0.035819 55.936 0.987783 -19.85
6.79468000 0.987518 -10.79 0.042962 58.751 0.042962 58.751 0.987503 -20.28
6.79468200 0.987183 -11.22 0.050197 60.635 0.050197 60.635 0.987167 -20.71
6.79468400 0.986792 -11.65 0.057486 61.934 0.057486 61.934 0.986777 -21.14
6.79468600 0.986347 -12.08 0.064807 62.843 0.064807 62.843 0.986332 -21.57
6.79468800 0.985848 -12.51 0.072146 63.480 0.072146 63.480 0.985832 -21.99
6.79469000 0.985294 -12.93 0.079495 63.920 0.079495 63.920 0.985278 -22.42
6.79469200 0.984685 -13.36 0.086848 64.212 0.086848 64.212 0.984670 -22.85
6.79469400 0.984023 -13.79 0.094198 64.392 0.094198 64.392 0.984008 -23.28
6.79469600 0.983307 -14.21 0.101544 64.484 0.101544 64.484 0.983292 -23.70
6.79469800 0.982538 -14.64 0.108880 64.506 0.108880 64.506 0.982523 -24.13
6.79470000 0.981717 -15.06 0.116206 64.472 0.116206 64.472 0.981701 -24.55
6.79470200 0.980842 -15.49 0.123519 64.392 0.123519 64.392 0.980827 -24.98
6.79470400 0.979916 -15.91 0.130817 64.273 0.130817 64.273 0.979900 -25.40
6.79470600 0.978937 -16.33 0.138097 64.123 0.138097 64.123 0.978922 -25.82
6.79470800 0.977908 -16.75 0.145359 63.946 0.145359 63.946 0.977893 -26.25
6.79471000 0.976828 -17.17 0.152602 63.746 0.152602 63.746 0.976813 -26.67
6.79471200 0.975697 -17.59 0.159822 63.526 0.159822 63.526 0.975682 -27.09
6.79471400 0.974517 -18.01 0.167020 63.289 0.167020 63.289 0.974502 -27.51
6.79471600 0.973288 -18.43 0.174194 63.038 0.174194 63.038 0.973273 -27.92
6.79471800 0.972010 -18.85 0.181343 62.775 0.181343 62.775 0.971994 -28.34
6.79472000 0.970683 -19.26 0.188465 62.501 0.188465 62.501 0.970668 -28.76
6.79472200 0.969310 -19.68 0.195559 62.217 0.195559 62.217 0.969295 -29.17
6.79472400 0.967889 -20.09 0.202625 61.924 0.202625 61.924 0.967874 -29.59
6.79472600 0.966422 -20.50 0.209662 61.625 0.209662 61.625 0.966407 -30.00
6.79472800 0.964910 -20.91 0.216667 61.319 0.216667 61.319 0.964895 -30.41
6.79473000 0.963352 -21.32 0.223641 61.007 0.223641 61.007 0.963337 -30.82
6.79473200 0.961751 -21.73 0.230583 60.690 0.230583 60.690 0.961736 -31.23
6.79473400 0.960105 -22.14 0.237491 60.369 0.237491 60.369 0.960090 -31.64
6.79473600 0.958417 -22.55 0.244364 60.044 0.244364 60.044 0.958402 -32.05
6.79473800 0.956687 -22.95 0.251203 59.716 0.251203 59.716 0.956672 -32.45
6.79474000 0.954915 -23.35 0.258005 59.385 0.258005 59.385 0.954900 -32.86
6.79474200 0.953103 -23.75 0.264771 59.052 0.264771 59.052 0.953088 -33.26
6.79474400 0.951250 -24.15 0.271499 58.716 0.271499 58.716 0.951235 -33.66
6.79474600 0.949358 -24.55 0.278188 58.378 0.278188 58.378 0.949343 -34.06
6.79474800 0.947428 -24.95 0.284839 58.039 0.284839 58.039 0.947413 -34.46
6.79475000 0.945460 -25.35 0.291450 57.699 0.291450 57.699 0.945445 -34.85
6.79475200 0.943455 -25.74 0.298021 57.357 0.298021 57.357 0.943441 -35.25