! Sonnet Data File
! From: em Version : 14.52
! From Project: RO_3
! Data is De-embedded 
! Data File Written: 01/08/2019 21:32:08
!< HDATE 01/08/2019 00:47:59
!< MDATE 01/08/2019 20:32:01
# GHZ S MA R 50.00000
6.00000000 0.009615 78.784 0.999954 -12.16 0.999954 -12.16 0.009615 76.907
!< P1 F=6.0 Eeff=(5.67081746 -5.1701e-6) Z0=(51.7017575 2.35733e-5) R=0.0106902 C=0.00226256 
!< P2 F=6.0 Eeff=(5.67081746 -5.1701e-6) Z0=(51.7017575 2.35733e-5) R=0.0106902 C=0.00226256 
6.00250000 0.009620 78.780 0.999954 -12.16 0.999954 -12.16 0.009620 76.901
6.00500000 0.009626 78.776 0.999954 -12.17 0.999954 -12.17 0.009626 76.895
6.00750000 0.009631 78.771 0.999954 -12.17 0.999954 -12.17 0.009631 76.889
6.01000000 0.009636 78.767 0.999953 -12.18 0.999953 -12.18 0.009636 76.883
6.01250000 0.009641 78.762 0.999953 -12.18 0.999953 -12.18 0.009641 76.877
6.01500000 0.009646 78.758 0.999953 -12.19 0.999953 -12.19 0.009646 76.871
6.01750000 0.009652 78.754 0.999953 -12.19 0.999953 -12.19 0.009652 76.865
6.02000000 0.009657 78.750 0.999953 -12.20 0.999953 -12.20 0.009657 76.859
6.02250000 0.009662 78.745 0.999953 -12.20 0.999953 -12.20 0.009662 76.853
6.02500000 0.009667 78.741 0.999953 -12.21 0.999953 -12.21 0.009667 76.848
6.02750000 0.009672 78.737 0.999953 -12.21 0.999953 -12.21 0.009672 76.842
6.03000000 0.009678 78.732 0.999953 -12.22 0.999953 -12.22 0.009678 76.836
6.03250000 0.009683 78.728 0.999953 -12.22 0.999953 -12.22 0.009683 76.830
6.03500000 0.009688 78.724 0.999953 -12.23 0.999953 -12.23 0.009688 76.824
6.03750000 0.009694 78.719 0.999953 -12.23 0.999953 -12.23 0.009694 76.818
6.04000000 0.009699 78.715 0.999953 -12.24 0.999953 -12.24 0.009699 76.812
6.04250000 0.009704 78.711 0.999953 -12.24 0.999953 -12.24 0.009704 76.806
6.04500000 0.009709 78.706 0.999953 -12.25 0.999953 -12.25 0.009709 76.800
6.04750000 0.009715 78.702 0.999953 -12.25 0.999953 -12.25 0.009715 76.794
6.05000000 0.009720 78.698 0.999953 -12.26 0.999953 -12.26 0.009720 76.788
6.05250000 0.009725 78.693 0.999953 -12.26 0.999953 -12.26 0.009725 76.782
6.05500000 0.009731 78.689 0.999953 -12.27 0.999953 -12.27 0.009731 76.776
6.05750000 0.009736 78.685 0.999953 -12.27 0.999953 -12.27 0.009736 76.770
6.06000000 0.009742 78.681 0.999952 -12.28 0.999952 -12.28 0.009742 76.764
6.06250000 0.009747 78.676 0.999952 -12.28 0.999952 -12.28 0.009747 76.758
6.06500000 0.009752 78.672 0.999952 -12.29 0.999952 -12.29 0.009752 76.752
6.06750000 0.009758 78.668 0.999952 -12.29 0.999952 -12.29 0.009758 76.746
6.07000000 0.009763 78.664 0.999952 -12.30 0.999952 -12.30 0.009763 76.740
6.07250000 0.009769 78.659 0.999952 -12.30 0.999952 -12.30 0.009769 76.734
6.07500000 0.009774 78.655 0.999952 -12.31 0.999952 -12.31 0.009774 76.728
6.07750000 0.009780 78.651 0.999952 -12.31 0.999952 -12.31 0.009780 76.722
6.08000000 0.009785 78.646 0.999952 -12.32 0.999952 -12.32 0.009785 76.716
6.08250000 0.009791 78.642 0.999952 -12.32 0.999952 -12.32 0.009791 76.710
6.08500000 0.009796 78.638 0.999952 -12.33 0.999952 -12.33 0.009796 76.704
6.08750000 0.009802 78.634 0.999952 -12.34 0.999952 -12.34 0.009802 76.698
6.09000000 0.009807 78.629 0.999952 -12.34 0.999952 -12.34 0.009807 76.692
6.09250000 0.009813 78.625 0.999952 -12.35 0.999952 -12.35 0.009813 76.685
6.09500000 0.009818 78.621 0.999952 -12.35 0.999952 -12.35 0.009818 76.679
6.09750000 0.009824 78.617 0.999952 -12.36 0.999952 -12.36 0.009824 76.673
6.10000000 0.009829 78.613 0.999952 -12.36 0.999952 -12.36 0.009829 76.667
6.10250000 0.009835 78.608 0.999952 -12.37 0.999952 -12.37 0.009835 76.661
6.10500000 0.009841 78.604 0.999952 -12.37 0.999952 -12.37 0.009841 76.655
6.10750000 0.009846 78.600 0.999951 -12.38 0.999951 -12.38 0.009846 76.649
6.11000000 0.009852 78.596 0.999951 -12.38 0.999951 -12.38 0.009852 76.643
6.11250000 0.009858 78.591 0.999951 -12.39 0.999951 -12.39 0.009858 76.637
6.11500000 0.009863 78.587 0.999951 -12.39 0.999951 -12.39 0.009863 76.631
6.11750000 0.009869 78.583 0.999951 -12.40 0.999951 -12.40 0.009869 76.625
6.12000000 0.009875 78.579 0.999951 -12.40 0.999951 -12.40 0.009875 76.618
6.12250000 0.009880 78.575 0.999951 -12.41 0.999951 -12.41 0.009880 76.612
6.12500000 0.009886 78.570 0.999951 -12.41 0.999951 -12.41 0.009886 76.606
6.12750000 0.009892 78.566 0.999951 -12.42 0.999951 -12.42 0.009892 76.600
6.13000000 0.009898 78.562 0.999951 -12.42 0.999951 -12.42 0.009898 76.594
6.13250000 0.009903 78.558 0.999951 -12.43 0.999951 -12.43 0.009903 76.588
6.13500000 0.009909 78.554 0.999951 -12.43 0.999951 -12.43 0.009909 76.582
6.13750000 0.009915 78.550 0.999951 -12.44 0.999951 -12.44 0.009915 76.575
6.14000000 0.009921 78.545 0.999951 -12.44 0.999951 -12.44 0.009921 76.569
6.14250000 0.009927 78.541 0.999951 -12.45 0.999951 -12.45 0.009927 76.563
6.14500000 0.009933 78.537 0.999951 -12.45 0.999951 -12.45 0.009933 76.557
6.14750000 0.009939 78.533 0.999951 -12.46 0.999951 -12.46 0.009939 76.551
6.15000000 0.009944 78.529 0.999951 -12.46 0.999951 -12.46 0.009944 76.545
6.15250000 0.009950 78.525 0.999950 -12.47 0.999950 -12.47 0.009950 76.538
6.15500000 0.009956 78.520 0.999950 -12.47 0.999950 -12.47 0.009956 76.532
6.15750000 0.009962 78.516 0.999950 -12.48 0.999950 -12.48 0.009962 76.526
6.16000000 0.009968 78.512 0.999950 -12.48 0.999950 -12.48 0.009968 76.520
6.16250000 0.009974 78.508 0.999950 -12.49 0.999950 -12.49 0.009974 76.513
6.16500000 0.009980 78.504 0.999950 -12.50 0.999950 -12.50 0.009980 76.507
6.16750000 0.009986 78.500 0.999950 -12.50 0.999950 -12.50 0.009986 76.501
6.17000000 0.009993 78.496 0.999950 -12.51 0.999950 -12.51 0.009993 76.495
6.17250000 0.009999 78.492 0.999950 -12.51 0.999950 -12.51 0.009999 76.488
6.17500000 0.010005 78.488 0.999950 -12.52 0.999950 -12.52 0.010005 76.482
6.17750000 0.010011 78.483 0.999950 -12.52 0.999950 -12.52 0.010011 76.476
6.18000000 0.010017 78.479 0.999950 -12.53 0.999950 -12.53 0.010017 76.470
6.18250000 0.010023 78.475 0.999950 -12.53 0.999950 -12.53 0.010023 76.463
6.18500000 0.010029 78.471 0.999950 -12.54 0.999950 -12.54 0.010029 76.457
6.18750000 0.010036 78.467 0.999950 -12.54 0.999950 -12.54 0.010036 76.451
6.19000000 0.010042 78.463 0.999950 -12.55 0.999950 -12.55 0.010042 76.444
6.19250000 0.010048 78.459 0.999949 -12.55 0.999949 -12.55 0.010048 76.438
6.19500000 0.010054 78.455 0.999949 -12.56 0.999949 -12.56 0.010054 76.432
6.19750000 0.010061 78.451 0.999949 -12.56 0.999949 -12.56 0.010061 76.425
6.20000000 0.010067 78.447 0.999949 -12.57 0.999949 -12.57 0.010067 76.419
6.20250000 0.010073 78.443 0.999949 -12.57 0.999949 -12.57 0.010073 76.413
6.20500000 0.010080 78.439 0.999949 -12.58 0.999949 -12.58 0.010080 76.406
6.20750000 0.010086 78.435 0.999949 -12.58 0.999949 -12.58 0.010086 76.400
6.21000000 0.010093 78.431 0.999949 -12.59 0.999949 -12.59 0.010093 76.393
6.21250000 0.010099 78.427 0.999949 -12.59 0.999949 -12.59 0.010099 76.387
6.21500000 0.010106 78.423 0.999949 -12.60 0.999949 -12.60 0.010106 76.381
6.21750000 0.010112 78.419 0.999949 -12.60 0.999949 -12.60 0.010112 76.374
6.22000000 0.010119 78.415 0.999949 -12.61 0.999949 -12.61 0.010119 76.368
6.22250000 0.010125 78.411 0.999949 -12.61 0.999949 -12.61 0.010125 76.361
6.22500000 0.010132 78.407 0.999949 -12.62 0.999949 -12.62 0.010132 76.355
6.22750000 0.010139 78.403 0.999949 -12.63 0.999949 -12.63 0.010139 76.348
6.23000000 0.010145 78.399 0.999949 -12.63 0.999949 -12.63 0.010145 76.342
6.23250000 0.010152 78.395 0.999948 -12.64 0.999948 -12.64 0.010152 76.336
6.23500000 0.010159 78.391 0.999948 -12.64 0.999948 -12.64 0.010159 76.329
6.23750000 0.010165 78.387 0.999948 -12.65 0.999948 -12.65 0.010165 76.323
6.24000000 0.010172 78.383 0.999948 -12.65 0.999948 -12.65 0.010172 76.316
6.24250000 0.010179 78.379 0.999948 -12.66 0.999948 -12.66 0.010179 76.309
6.24500000 0.010186 78.375 0.999948 -12.66 0.999948 -12.66 0.010186 76.303
6.24750000 0.010193 78.371 0.999948 -12.67 0.999948 -12.67 0.010193 76.296
6.25000000 0.010200 78.367 0.999948 -12.67 0.999948 -12.67 0.010200 76.290
6.25250000 0.010207 78.363 0.999948 -12.68 0.999948 -12.68 0.010207 76.283
6.25500000 0.010214 78.360 0.999948 -12.68 0.999948 -12.68 0.010214 76.277
6.25750000 0.010221 78.356 0.999948 -12.69 0.999948 -12.69 0.010221 76.270
6.26000000 0.010228 78.352 0.999948 -12.69 0.999948 -12.69 0.010228 76.263
6.26250000 0.010235 78.348 0.999948 -12.70 0.999948 -12.70 0.010235 76.257
6.26500000 0.010242 78.344 0.999948 -12.70 0.999948 -12.70 0.010242 76.250
6.26750000 0.010249 78.340 0.999947 -12.71 0.999947 -12.71 0.010249 76.244
6.27000000 0.010256 78.336 0.999947 -12.71 0.999947 -12.71 0.010256 76.237
6.27250000 0.010263 78.333 0.999947 -12.72 0.999947 -12.72 0.010263 76.230
6.27500000 0.010271 78.329 0.999947 -12.72 0.999947 -12.72 0.010271 76.224
6.27750000 0.010278 78.325 0.999947 -12.73 0.999947 -12.73 0.010278 76.217
6.28000000 0.010285 78.321 0.999947 -12.74 0.999947 -12.74 0.010285 76.210
6.28250000 0.010293 78.317 0.999947 -12.74 0.999947 -12.74 0.010293 76.203
6.28500000 0.010300 78.314 0.999947 -12.75 0.999947 -12.75 0.010300 76.197
6.28750000 0.010308 78.310 0.999947 -12.75 0.999947 -12.75 0.010308 76.190
6.29000000 0.010315 78.306 0.999947 -12.76 0.999947 -12.76 0.010315 76.183
6.29250000 0.010323 78.302 0.999947 -12.76 0.999947 -12.76 0.010323 76.176
6.29500000 0.010330 78.299 0.999947 -12.77 0.999947 -12.77 0.010330 76.170
6.29750000 0.010338 78.295 0.999947 -12.77 0.999947 -12.77 0.010338 76.163
6.30000000 0.010346 78.291 0.999946 -12.78 0.999946 -12.78 0.010346 76.156
6.30250000 0.010354 78.288 0.999946 -12.78 0.999946 -12.78 0.010354 76.149
6.30500000 0.010361 78.284 0.999946 -12.79 0.999946 -12.79 0.010361 76.142
6.30750000 0.010369 78.280 0.999946 -12.79 0.999946 -12.79 0.010369 76.135
6.31000000 0.010377 78.277 0.999946 -12.80 0.999946 -12.80 0.010377 76.128
6.31250000 0.010385 78.273 0.999946 -12.80 0.999946 -12.80 0.010385 76.121
6.31500000 0.010393 78.269 0.999946 -12.81 0.999946 -12.81 0.010393 76.114
6.31750000 0.010401 78.266 0.999946 -12.81 0.999946 -12.81 0.010401 76.107
6.32000000 0.010409 78.262 0.999946 -12.82 0.999946 -12.82 0.010409 76.100
6.32250000 0.010417 78.258 0.999946 -12.83 0.999946 -12.83 0.010417 76.093
6.32500000 0.010426 78.255 0.999946 -12.83 0.999946 -12.83 0.010426 76.086
6.32750000 0.010434 78.251 0.999946 -12.84 0.999946 -12.84 0.010434 76.079
6.33000000 0.010442 78.248 0.999945 -12.84 0.999945 -12.84 0.010442 76.072
6.33250000 0.010451 78.244 0.999945 -12.85 0.999945 -12.85 0.010451 76.065
6.33500000 0.010459 78.241 0.999945 -12.85 0.999945 -12.85 0.010459 76.058
6.33750000 0.010468 78.237 0.999945 -12.86 0.999945 -12.86 0.010468 76.051
6.34000000 0.010476 78.234 0.999945 -12.86 0.999945 -12.86 0.010476 76.044
6.34250000 0.010485 78.230 0.999945 -12.87 0.999945 -12.87 0.010485 76.037
6.34500000 0.010494 78.227 0.999945 -12.87 0.999945 -12.87 0.010494 76.030
6.34750000 0.010502 78.223 0.999945 -12.88 0.999945 -12.88 0.010502 76.022
6.35000000 0.010511 78.220 0.999945 -12.88 0.999945 -12.88 0.010511 76.015
6.35250000 0.010520 78.216 0.999945 -12.89 0.999945 -12.89 0.010520 76.008
6.35500000 0.010529 78.213 0.999945 -12.89 0.999945 -12.89 0.010529 76.001
6.35750000 0.010538 78.209 0.999944 -12.90 0.999944 -12.90 0.010538 75.993
6.36000000 0.010547 78.206 0.999944 -12.91 0.999944 -12.91 0.010547 75.986
6.36250000 0.010557 78.203 0.999944 -12.91 0.999944 -12.91 0.010557 75.978
6.36500000 0.010566 78.199 0.999944 -12.92 0.999944 -12.92 0.010566 75.971
6.36750000 0.010575 78.196 0.999944 -12.92 0.999944 -12.92 0.010575 75.964
6.37000000 0.010585 78.193 0.999944 -12.93 0.999944 -12.93 0.010585 75.956
6.37250000 0.010594 78.189 0.999944 -12.93 0.999944 -12.93 0.010594 75.949
6.37500000 0.010604 78.186 0.999944 -12.94 0.999944 -12.94 0.010604 75.941
6.37750000 0.010614 78.183 0.999944 -12.94 0.999944 -12.94 0.010614 75.934
6.38000000 0.010624 78.180 0.999944 -12.95 0.999944 -12.95 0.010624 75.926
6.38250000 0.010633 78.176 0.999943 -12.95 0.999943 -12.95 0.010633 75.919
6.38500000 0.010643 78.173 0.999943 -12.96 0.999943 -12.96 0.010643 75.911
6.38750000 0.010653 78.170 0.999943 -12.96 0.999943 -12.96 0.010654 75.903
6.39000000 0.010664 78.167 0.999943 -12.97 0.999943 -12.97 0.010664 75.896
6.39250000 0.010674 78.164 0.999943 -12.98 0.999943 -12.98 0.010674 75.888
6.39500000 0.010684 78.161 0.999943 -12.98 0.999943 -12.98 0.010684 75.880
6.39750000 0.010695 78.158 0.999943 -12.99 0.999943 -12.99 0.010695 75.872
6.40000000 0.010705 78.155 0.999943 -12.99 0.999943 -12.99 0.010705 75.864
6.40250000 0.010716 78.152 0.999943 -13.00 0.999943 -13.00 0.010716 75.857
6.40500000 0.010727 78.149 0.999942 -13.00 0.999942 -13.00 0.010727 75.849
6.40750000 0.010738 78.146 0.999942 -13.01 0.999942 -13.01 0.010738 75.841
6.41000000 0.010749 78.143 0.999942 -13.01 0.999942 -13.01 0.010749 75.833
6.41250000 0.010760 78.140 0.999942 -13.02 0.999942 -13.02 0.010760 75.825
6.41500000 0.010772 78.137 0.999942 -13.02 0.999942 -13.02 0.010772 75.817
6.41750000 0.010783 78.134 0.999942 -13.03 0.999942 -13.03 0.010783 75.808
6.42000000 0.010795 78.131 0.999942 -13.04 0.999942 -13.04 0.010795 75.800
6.42250000 0.010806 78.128 0.999942 -13.04 0.999942 -13.04 0.010806 75.792
6.42500000 0.010818 78.126 0.999942 -13.05 0.999942 -13.05 0.010818 75.784
6.42750000 0.010830 78.123 0.999941 -13.05 0.999941 -13.05 0.010830 75.776
6.43000000 0.010842 78.120 0.999941 -13.06 0.999941 -13.06 0.010842 75.767
6.43250000 0.010854 78.117 0.999941 -13.06 0.999941 -13.06 0.010855 75.759
6.43500000 0.010867 78.115 0.999941 -13.07 0.999941 -13.07 0.010867 75.750
6.43750000 0.010880 78.112 0.999941 -13.07 0.999941 -13.07 0.010880 75.742
6.44000000 0.010892 78.110 0.999941 -13.08 0.999941 -13.08 0.010892 75.733
6.44250000 0.010905 78.107 0.999941 -13.09 0.999941 -13.09 0.010905 75.725
6.44500000 0.010918 78.104 0.999940 -13.09 0.999940 -13.09 0.010918 75.716
6.44750000 0.010932 78.102 0.999940 -13.10 0.999940 -13.10 0.010932 75.707
6.45000000 0.010945 78.100 0.999940 -13.10 0.999940 -13.10 0.010945 75.699
6.45250000 0.010959 78.097 0.999940 -13.11 0.999940 -13.11 0.010959 75.690
6.45500000 0.010973 78.095 0.999940 -13.11 0.999940 -13.11 0.010973 75.681
6.45750000 0.010987 78.092 0.999940 -13.12 0.999940 -13.12 0.010987 75.672
6.46000000 0.011001 78.090 0.999940 -13.12 0.999940 -13.12 0.011001 75.663
6.46250000 0.011015 78.088 0.999939 -13.13 0.999939 -13.13 0.011015 75.654
6.46500000 0.011030 78.086 0.999939 -13.14 0.999939 -13.14 0.011030 75.645
6.46750000 0.011045 78.084 0.999939 -13.14 0.999939 -13.14 0.011045 75.635
6.47000000 0.011060 78.082 0.999939 -13.15 0.999939 -13.15 0.011060 75.626
6.47250000 0.011075 78.080 0.999939 -13.15 0.999939 -13.15 0.011075 75.617
6.47500000 0.011091 78.078 0.999939 -13.16 0.999939 -13.16 0.011091 75.607
6.47750000 0.011107 78.076 0.999938 -13.16 0.999938 -13.16 0.011107 75.598
6.48000000 0.011123 78.074 0.999938 -13.17 0.999938 -13.17 0.011123 75.588
6.48250000 0.011139 78.072 0.999938 -13.18 0.999938 -13.18 0.011139 75.578
6.48500000 0.011156 78.070 0.999938 -13.18 0.999938 -13.18 0.011156 75.568
6.48750000 0.011173 78.068 0.999938 -13.19 0.999938 -13.19 0.011173 75.559
6.49000000 0.011190 78.067 0.999937 -13.19 0.999937 -13.19 0.011190 75.549
6.49250000 0.011208 78.065 0.999937 -13.20 0.999937 -13.20 0.011208 75.538
6.49500000 0.011226 78.064 0.999937 -13.21 0.999937 -13.21 0.011226 75.528
6.49750000 0.011244 78.062 0.999937 -13.21 0.999937 -13.21 0.011244 75.518
6.50000000 0.011263 78.061 0.999937 -13.22 0.999937 -13.22 0.011263 75.508
6.50250000 0.011282 78.059 0.999936 -13.22 0.999936 -13.22 0.011282 75.497
6.50500000 0.011301 78.058 0.999936 -13.23 0.999936 -13.23 0.011301 75.486
6.50750000 0.011321 78.057 0.999936 -13.23 0.999936 -13.23 0.011321 75.476
6.51000000 0.011341 78.056 0.999936 -13.24 0.999936 -13.24 0.011341 75.465
6.51250000 0.011361 78.055 0.999935 -13.25 0.999935 -13.25 0.011361 75.454
6.51500000 0.011382 78.054 0.999935 -13.25 0.999935 -13.25 0.011382 75.443
6.51750000 0.011404 78.053 0.999935 -13.26 0.999935 -13.26 0.011404 75.431
6.52000000 0.011426 78.052 0.999935 -13.27 0.999935 -13.27 0.011426 75.420
6.52250000 0.011448 78.051 0.999935 -13.27 0.999935 -13.27 0.011448 75.409
6.52500000 0.011471 78.051 0.999934 -13.28 0.999934 -13.28 0.011471 75.397
6.52750000 0.011494 78.050 0.999934 -13.28 0.999934 -13.28 0.011494 75.385
6.53000000 0.011518 78.050 0.999934 -13.29 0.999934 -13.29 0.011518 75.373
6.53250000 0.011543 78.050 0.999933 -13.30 0.999933 -13.30 0.011543 75.361
6.53500000 0.011568 78.049 0.999933 -13.30 0.999933 -13.30 0.011568 75.348
6.53750000 0.011594 78.049 0.999933 -13.31 0.999933 -13.31 0.011594 75.336
6.54000000 0.011620 78.049 0.999933 -13.31 0.999933 -13.31 0.011620 75.323
6.54250000 0.011647 78.049 0.999932 -13.32 0.999932 -13.32 0.011647 75.310
6.54500000 0.011675 78.050 0.999932 -13.33 0.999932 -13.33 0.011675 75.297
6.54750000 0.011703 78.050 0.999932 -13.33 0.999932 -13.33 0.011703 75.284
6.55000000 0.011733 78.051 0.999931 -13.34 0.999931 -13.34 0.011733 75.270
6.55250000 0.011763 78.051 0.999931 -13.35 0.999931 -13.35 0.011763 75.256
6.55500000 0.011794 78.052 0.999931 -13.35 0.999931 -13.35 0.011794 75.242
6.55750000 0.011825 78.053 0.999930 -13.36 0.999930 -13.36 0.011825 75.228
6.56000000 0.011858 78.054 0.999930 -13.37 0.999930 -13.37 0.011858 75.214
6.56250000 0.011892 78.055 0.999929 -13.37 0.999929 -13.37 0.011892 75.199
6.56500000 0.011927 78.057 0.999929 -13.38 0.999929 -13.38 0.011927 75.184
6.56750000 0.011963 78.058 0.999928 -13.39 0.999928 -13.39 0.011963 75.168
6.57000000 0.012000 78.060 0.999928 -13.39 0.999928 -13.39 0.012000 75.153
6.57250000 0.012038 78.062 0.999928 -13.40 0.999928 -13.40 0.012038 75.136
6.57500000 0.012078 78.064 0.999927 -13.41 0.999927 -13.41 0.012078 75.120
6.57750000 0.012119 78.067 0.999927 -13.42 0.999927 -13.42 0.012119 75.103
6.58000000 0.012161 78.069 0.999926 -13.42 0.999926 -13.42 0.012161 75.086
6.58250000 0.012205 78.072 0.999926 -13.43 0.999926 -13.43 0.012205 75.069
6.58500000 0.012251 78.075 0.999925 -13.44 0.999925 -13.44 0.012251 75.051
6.58750000 0.012298 78.079 0.999924 -13.45 0.999924 -13.45 0.012298 75.032
6.59000000 0.012347 78.082 0.999924 -13.45 0.999924 -13.45 0.012347 75.013
6.59250000 0.012399 78.086 0.999923 -13.46 0.999923 -13.46 0.012399 74.994
6.59500000 0.012452 78.090 0.999923 -13.47 0.999923 -13.47 0.012452 74.974
6.59750000 0.012507 78.095 0.999922 -13.48 0.999922 -13.48 0.012507 74.953
6.60000000 0.012565 78.099 0.999921 -13.49 0.999921 -13.49 0.012565 74.932
6.60250000 0.012625 78.104 0.999920 -13.49 0.999920 -13.49 0.012625 74.911
6.60500000 0.012688 78.110 0.999920 -13.50 0.999920 -13.50 0.012688 74.888
6.60750000 0.012754 78.116 0.999919 -13.51 0.999919 -13.51 0.012754 74.865
6.61000000 0.012824 78.122 0.999918 -13.52 0.999918 -13.52 0.012824 74.841
6.61250000 0.012896 78.128 0.999917 -13.53 0.999917 -13.53 0.012896 74.817
6.61500000 0.012973 78.135 0.999916 -13.54 0.999916 -13.54 0.012973 74.791
6.61750000 0.013053 78.143 0.999915 -13.55 0.999915 -13.55 0.013053 74.765
6.62000000 0.013137 78.151 0.999914 -13.56 0.999914 -13.56 0.013137 74.737
6.62250000 0.013227 78.159 0.999913 -13.57 0.999913 -13.57 0.013227 74.709
6.62500000 0.013321 78.169 0.999911 -13.58 0.999911 -13.58 0.013321 74.679
6.62750000 0.013421 78.178 0.999910 -13.59 0.999910 -13.59 0.013421 74.649
6.63000000 0.013527 78.188 0.999909 -13.60 0.999909 -13.60 0.013527 74.617
6.63250000 0.013640 78.199 0.999907 -13.61 0.999907 -13.61 0.013640 74.583
6.63500000 0.013761 78.211 0.999905 -13.62 0.999905 -13.62 0.013761 74.548
6.63750000 0.013889 78.223 0.999904 -13.63 0.999904 -13.63 0.013889 74.511
6.64000000 0.014027 78.236 0.999902 -13.65 0.999902 -13.65 0.014027 74.473
6.64250000 0.014175 78.250 0.999900 -13.66 0.999900 -13.66 0.014175 74.432
6.64500000 0.014334 78.264 0.999897 -13.67 0.999897 -13.67 0.014334 74.389
6.64750000 0.014506 78.280 0.999895 -13.69 0.999895 -13.69 0.014506 74.344
6.65000000 0.014692 78.297 0.999892 -13.70 0.999892 -13.70 0.014692 74.297
6.65250000 0.014895 78.314 0.999889 -13.72 0.999889 -13.72 0.014895 74.246
6.65500000 0.015116 78.333 0.999886 -13.74 0.999886 -13.74 0.015116 74.192
6.65750000 0.015359 78.353 0.999882 -13.76 0.999882 -13.76 0.015359 74.135
6.66000000 0.015626 78.374 0.999878 -13.78 0.999878 -13.78 0.015626 74.073
6.66250000 0.015923 78.396 0.999873 -13.80 0.999873 -13.80 0.015923 74.007
6.66500000 0.016253 78.419 0.999868 -13.82 0.999868 -13.82 0.016253 73.936
6.66750000 0.016622 78.444 0.999862 -13.85 0.999862 -13.85 0.016622 73.859
6.67000000 0.017040 78.470 0.999855 -13.88 0.999855 -13.88 0.017040 73.775
6.67250000 0.017515 78.497 0.999846 -13.91 0.999846 -13.91 0.017515 73.683
6.67500000 0.018061 78.525 0.999837 -13.95 0.999837 -13.95 0.018061 73.583
6.67750000 0.018694 78.554 0.999825 -13.99 0.999825 -13.99 0.018694 73.471
6.68000000 0.019439 78.583 0.999811 -14.03 0.999811 -14.03 0.019439 73.347
6.68250000 0.020326 78.611 0.999793 -14.09 0.999793 -14.09 0.020326 73.206
6.68500000 0.021403 78.636 0.999770 -14.16 0.999770 -14.16 0.021403 73.046
6.68750000 0.022737 78.657 0.999740 -14.24 0.999740 -14.24 0.022737 72.862
6.69000000 0.024436 78.667 0.999699 -14.34 0.999699 -14.34 0.024436 72.642
!< P1 F=6.69 Eeff=(5.67080559 -5.1706e-6) Z0=(51.7016597 2.35733e-5) R=0.00958411 C=0.00226255 
!< P2 F=6.69 Eeff=(5.67080559 -5.1706e-6) Z0=(51.7016597 2.35733e-5) R=0.00958411 C=0.00226255 
6.69020000 0.024592 78.668 0.999695 -14.35 0.999695 -14.35 0.024592 72.623
6.69040000 0.024751 78.668 0.999691 -14.36 0.999691 -14.36 0.024751 72.603
6.69060000 0.024914 78.668 0.999687 -14.37 0.999687 -14.37 0.024914 72.583
6.69080000 0.025080 78.668 0.999683 -14.38 0.999683 -14.38 0.025080 72.563
6.69100000 0.025251 78.668 0.999678 -14.39 0.999678 -14.39 0.025250 72.543
6.69120000 0.025425 78.667 0.999674 -14.40 0.999674 -14.40 0.025425 72.522
6.69140000 0.025603 78.667 0.999669 -14.41 0.999669 -14.41 0.025603 72.501
6.69160000 0.025786 78.666 0.999665 -14.42 0.999665 -14.42 0.025786 72.480
6.69180000 0.025973 78.666 0.999660 -14.43 0.999660 -14.43 0.025973 72.458
6.69200000 0.026165 78.665 0.999655 -14.44 0.999655 -14.44 0.026164 72.436
6.69220000 0.026361 78.664 0.999649 -14.45 0.999649 -14.45 0.026361 72.414
6.69240000 0.026562 78.663 0.999644 -14.47 0.999644 -14.47 0.026562 72.391
6.69260000 0.026768 78.661 0.999638 -14.48 0.999638 -14.48 0.026768 72.368
6.69280000 0.026980 78.660 0.999633 -14.49 0.999633 -14.49 0.026980 72.344
6.69300000 0.027197 78.658 0.999627 -14.50 0.999627 -14.50 0.027197 72.320
6.69320000 0.027420 78.656 0.999620 -14.52 0.999620 -14.52 0.027420 72.295
6.69340000 0.027649 78.653 0.999614 -14.53 0.999614 -14.53 0.027649 72.270
6.69360000 0.027884 78.651 0.999607 -14.54 0.999607 -14.54 0.027884 72.245
6.69380000 0.028125 78.648 0.999601 -14.56 0.999601 -14.56 0.028125 72.219
6.69400000 0.028373 78.645 0.999593 -14.57 0.999593 -14.57 0.028373 72.192
6.69420000 0.028628 78.642 0.999586 -14.59 0.999586 -14.59 0.028628 72.165
6.69440000 0.028891 78.638 0.999578 -14.60 0.999578 -14.60 0.028890 72.138
6.69460000 0.029161 78.634 0.999570 -14.62 0.999570 -14.62 0.029160 72.110
6.69480000 0.029438 78.630 0.999562 -14.64 0.999562 -14.64 0.029438 72.081
6.69500000 0.029725 78.625 0.999554 -14.65 0.999554 -14.65 0.029724 72.052
6.69520000 0.030020 78.620 0.999545 -14.67 0.999545 -14.67 0.030019 72.022
6.69540000 0.030324 78.615 0.999535 -14.69 0.999535 -14.69 0.030323 71.991
6.69560000 0.030637 78.609 0.999526 -14.71 0.999526 -14.71 0.030637 71.960
6.69580000 0.030960 78.603 0.999516 -14.73 0.999516 -14.73 0.030960 71.928
6.69600000 0.031294 78.596 0.999505 -14.75 0.999505 -14.75 0.031294 71.895
6.69620000 0.031639 78.589 0.999494 -14.77 0.999494 -14.77 0.031639 71.862
6.69640000 0.031995 78.581 0.999482 -14.79 0.999482 -14.79 0.031995 71.828
6.69660000 0.032364 78.573 0.999470 -14.81 0.999470 -14.81 0.032364 71.793
6.69680000 0.032745 78.564 0.999458 -14.83 0.999458 -14.83 0.032745 71.756
6.69700000 0.033139 78.554 0.999445 -14.85 0.999445 -14.85 0.033139 71.720
6.69720000 0.033548 78.544 0.999431 -14.88 0.999431 -14.88 0.033548 71.682
6.69740000 0.033971 78.533 0.999416 -14.90 0.999416 -14.90 0.033971 71.643
6.69760000 0.034411 78.521 0.999401 -14.93 0.999401 -14.93 0.034410 71.603
6.69780000 0.034866 78.509 0.999385 -14.95 0.999385 -14.95 0.034866 71.562
6.69800000 0.035340 78.495 0.999368 -14.98 0.999368 -14.98 0.035339 71.519
6.69820000 0.035831 78.481 0.999350 -15.01 0.999350 -15.01 0.035831 71.476
6.69840000 0.036343 78.466 0.999331 -15.04 0.999331 -15.04 0.036343 71.431
6.69860000 0.036875 78.450 0.999311 -15.07 0.999311 -15.07 0.036875 71.385
6.69880000 0.037430 78.432 0.999291 -15.10 0.999291 -15.10 0.037430 71.337
6.69900000 0.038008 78.414 0.999268 -15.14 0.999268 -15.14 0.038008 71.288
6.69920000 0.038612 78.394 0.999245 -15.17 0.999245 -15.17 0.038611 71.237
6.69940000 0.039242 78.373 0.999220 -15.21 0.999220 -15.21 0.039242 71.184
6.69960000 0.039901 78.350 0.999193 -15.25 0.999193 -15.25 0.039901 71.130
6.69980000 0.040591 78.326 0.999165 -15.29 0.999165 -15.29 0.040590 71.073
6.70000000 0.041313 78.299 0.999135 -15.33 0.999135 -15.33 0.041313 71.015
6.70020000 0.042071 78.272 0.999103 -15.37 0.999103 -15.37 0.042070 70.954
6.70040000 0.042867 78.242 0.999068 -15.42 0.999068 -15.42 0.042866 70.891
6.70060000 0.043703 78.210 0.999031 -15.47 0.999031 -15.47 0.043703 70.825
6.70080000 0.044584 78.175 0.998992 -15.52 0.998992 -15.52 0.044583 70.757
6.70100000 0.045512 78.138 0.998949 -15.57 0.998949 -15.57 0.045512 70.685
6.70120000 0.046492 78.099 0.998903 -15.63 0.998903 -15.63 0.046492 70.610
6.70140000 0.047528 78.056 0.998854 -15.69 0.998854 -15.69 0.047528 70.532
6.70160000 0.048625 78.010 0.998800 -15.75 0.998800 -15.75 0.048624 70.450
6.70180000 0.049789 77.960 0.998741 -15.82 0.998741 -15.82 0.049788 70.364
6.70200000 0.051025 77.906 0.998678 -15.89 0.998678 -15.89 0.051024 70.274
6.70220000 0.052341 77.848 0.998608 -15.96 0.998608 -15.96 0.052340 70.178
6.70240000 0.053745 77.785 0.998532 -16.05 0.998532 -16.05 0.053744 70.078
6.70260000 0.055246 77.717 0.998449 -16.13 0.998449 -16.13 0.055245 69.971
6.70280000 0.056854 77.642 0.998357 -16.22 0.998357 -16.22 0.056854 69.858
6.70300000 0.058582 77.561 0.998255 -16.32 0.998255 -16.32 0.058581 69.738
6.70320000 0.060442 77.473 0.998142 -16.43 0.998142 -16.43 0.060441 69.609
6.70340000 0.062451 77.376 0.998016 -16.55 0.998016 -16.55 0.062451 69.472
6.70360000 0.064628 77.269 0.997875 -16.67 0.997875 -16.67 0.064628 69.325
6.70380000 0.066995 77.152 0.997715 -16.81 0.997715 -16.81 0.066994 69.166
6.70400000 0.069576 77.023 0.997535 -16.96 0.997535 -16.96 0.069575 68.995
6.70420000 0.072403 76.879 0.997330 -17.12 0.997330 -17.12 0.072402 68.809
6.70440000 0.075513 76.720 0.997095 -17.30 0.997095 -17.30 0.075512 68.607
6.70460000 0.078950 76.541 0.996823 -17.50 0.996823 -17.50 0.078949 68.385
6.70480000 0.082768 76.341 0.996507 -17.72 0.996507 -17.72 0.082767 68.140
6.70500000 0.087035 76.115 0.996136 -17.96 0.996136 -17.96 0.087034 67.869
6.70520000 0.091834 75.858 0.995696 -18.24 0.995696 -18.24 0.091833 67.567
6.70540000 0.097270 75.564 0.995169 -18.55 0.995169 -18.55 0.097269 67.226
6.70560000 0.103481 75.225 0.994529 -18.91 0.994529 -18.91 0.103479 66.841
6.70580000 0.110641 74.831 0.993741 -19.32 0.993741 -19.32 0.110640 66.399
6.70600000 0.118987 74.368 0.992756 -19.80 0.992756 -19.80 0.118985 65.888
6.70620000 0.128835 73.816 0.991499 -20.37 0.991499 -20.37 0.128834 65.287
6.70640000 0.140630 73.150 0.989860 -21.06 0.989860 -21.06 0.140628 64.572
6.70660000 0.155003 72.333 0.987664 -21.89 0.987664 -21.89 0.155001 63.704
6.70680000 0.172890 71.306 0.984625 -22.93 0.984625 -22.93 0.172887 62.626
6.70700000 0.195731 69.984 0.980244 -24.26 0.980244 -24.26 0.195729 61.252
6.70720000 0.225857 68.223 0.973598 -26.03 0.973598 -26.03 0.225853 59.438
6.70740000 0.267256 65.771 0.962818 -28.48 0.962818 -28.48 0.267252 56.933
6.70760000 0.327256 62.150 0.943681 -32.08 0.943681 -32.08 0.327251 53.257
6.70780000 0.420591 56.328 0.905056 -37.85 0.905056 -37.85 0.420584 47.380
!< P1 F=6.7078 Eeff=(5.67080532 -5.1706e-6) Z0=(51.7016573 2.35685e-5) R=0.00956444 C=0.00226255 
!< P2 F=6.7078 Eeff=(5.67080532 -5.1706e-6) Z0=(51.7016573 2.35685e-5) R=0.00956444 C=0.00226255 
6.70780500 0.423552 56.139 0.903641 -38.03 0.903641 -38.03 0.423546 47.190
6.70781000 0.426553 55.947 0.902196 -38.22 0.902196 -38.22 0.426546 46.996
6.70781500 0.429592 55.752 0.900720 -38.42 0.900720 -38.42 0.429585 46.800
6.70782000 0.432671 55.554 0.899211 -38.61 0.899211 -38.61 0.432664 46.601
6.70782500 0.435790 55.354 0.897668 -38.81 0.897668 -38.81 0.435783 46.399
6.70783000 0.438950 55.150 0.896091 -39.01 0.896091 -39.01 0.438943 46.194
6.70783500 0.442152 54.943 0.894479 -39.22 0.894479 -39.22 0.442145 45.986
6.70784000 0.445396 54.734 0.892831 -39.42 0.892831 -39.42 0.445389 45.775
6.70784500 0.448683 54.521 0.891145 -39.63 0.891145 -39.63 0.448676 45.561
6.70785000 0.452014 54.304 0.889421 -39.85 0.889421 -39.85 0.452007 45.343
6.70785500 0.455389 54.085 0.887658 -40.06 0.887658 -40.06 0.455383 45.122
6.70786000 0.458810 53.862 0.885853 -40.28 0.885853 -40.28 0.458803 44.898
6.70786500 0.462277 53.635 0.884007 -40.51 0.884007 -40.51 0.462270 44.670
6.70787000 0.465790 53.405 0.882118 -40.74 0.882118 -40.74 0.465783 44.438
6.70787500 0.469351 53.172 0.880185 -40.97 0.880185 -40.97 0.469344 44.203
6.70788000 0.472959 52.935 0.878206 -41.20 0.878206 -41.20 0.472952 43.965
6.70788500 0.476617 52.693 0.876180 -41.44 0.876180 -41.44 0.476610 43.722
6.70789000 0.480325 52.449 0.874106 -41.68 0.874106 -41.68 0.480318 43.476
6.70789500 0.484083 52.200 0.871982 -41.93 0.871982 -41.93 0.484075 43.226
6.70790000 0.487892 51.947 0.869807 -42.18 0.869807 -42.18 0.487885 42.971
6.70790500 0.491753 51.690 0.867579 -42.43 0.867579 -42.43 0.491746 42.713
6.70791000 0.495668 51.428 0.865297 -42.69 0.865297 -42.69 0.495660 42.450
6.70791500 0.499636 51.163 0.862959 -42.95 0.862959 -42.95 0.499628 42.183