! Sonnet Data File
! From: em Version : 14.52
! From Project: TR_1
! Data is De-embedded 
! Data File Written: 01/08/2019 23:49:45
!< HDATE 01/08/2019 00:49:42
!< MDATE 01/08/2019 23:19:16
# GHZ S MA R 50.00000
5.70000000 0.010809 74.271 0.999941 -16.38 0.999941 -16.38 0.010809 72.961
!< P1 F=5.7 Eeff=(5.67073876 -5.1701e-6) Z0=(51.7225488 2.35781e-5) R=0.01125112 C=0.00226562 
!< P2 F=5.7 Eeff=(5.67073876 -5.1701e-6) Z0=(51.7225488 2.35781e-5) R=0.01125112 C=0.00226562 
5.70250000 0.010809 74.260 0.999941 -16.39 0.999941 -16.39 0.010809 72.957
5.70500000 0.010808 74.248 0.999941 -16.40 0.999941 -16.40 0.010808 72.954
5.70750000 0.010808 74.236 0.999941 -16.41 0.999941 -16.41 0.010808 72.951
5.71000000 0.010807 74.224 0.999941 -16.41 0.999941 -16.41 0.010807 72.948
5.71250000 0.010806 74.212 0.999941 -16.42 0.999941 -16.42 0.010806 72.945
5.71500000 0.010804 74.199 0.999941 -16.43 0.999941 -16.43 0.010804 72.943
5.71750000 0.010803 74.186 0.999942 -16.44 0.999942 -16.44 0.010803 72.941
5.72000000 0.010801 74.173 0.999942 -16.44 0.999942 -16.44 0.010801 72.938
5.72250000 0.010799 74.160 0.999942 -16.45 0.999942 -16.45 0.010799 72.937
5.72500000 0.010796 74.147 0.999942 -16.46 0.999942 -16.46 0.010796 72.935
5.72750000 0.010794 74.133 0.999942 -16.47 0.999942 -16.47 0.010794 72.933
5.73000000 0.010791 74.119 0.999942 -16.48 0.999942 -16.48 0.010791 72.932
5.73250000 0.010787 74.104 0.999942 -16.48 0.999942 -16.48 0.010787 72.932
5.73500000 0.010784 74.089 0.999942 -16.49 0.999942 -16.49 0.010784 72.931
5.73750000 0.010779 74.074 0.999942 -16.50 0.999942 -16.50 0.010779 72.931
5.74000000 0.010775 74.058 0.999942 -16.51 0.999942 -16.51 0.010775 72.931
5.74250000 0.010770 74.042 0.999942 -16.51 0.999942 -16.51 0.010770 72.932
5.74500000 0.010764 74.026 0.999942 -16.52 0.999942 -16.52 0.010764 72.933
5.74750000 0.010758 74.009 0.999942 -16.53 0.999942 -16.53 0.010758 72.934
5.75000000 0.010752 73.991 0.999942 -16.54 0.999942 -16.54 0.010752 72.936
5.75250000 0.010745 73.973 0.999942 -16.54 0.999942 -16.54 0.010745 72.939
5.75500000 0.010737 73.954 0.999942 -16.55 0.999942 -16.55 0.010737 72.942
5.75750000 0.010728 73.934 0.999942 -16.56 0.999942 -16.56 0.010728 72.946
5.76000000 0.010719 73.913 0.999942 -16.57 0.999942 -16.57 0.010719 72.951
5.76250000 0.010709 73.892 0.999943 -16.58 0.999943 -16.58 0.010709 72.956
5.76500000 0.010697 73.869 0.999943 -16.58 0.999943 -16.58 0.010697 72.962
5.76750000 0.010685 73.846 0.999943 -16.59 0.999943 -16.59 0.010685 72.969
5.77000000 0.010672 73.821 0.999943 -16.60 0.999943 -16.60 0.010672 72.977
5.77250000 0.010657 73.795 0.999943 -16.61 0.999943 -16.61 0.010657 72.987
5.77500000 0.010641 73.768 0.999943 -16.62 0.999943 -16.62 0.010641 72.997
5.77750000 0.010624 73.739 0.999943 -16.63 0.999943 -16.63 0.010624 73.009
5.78000000 0.010604 73.708 0.999944 -16.64 0.999944 -16.64 0.010604 73.023
5.78250000 0.010583 73.675 0.999944 -16.64 0.999944 -16.64 0.010583 73.039
5.78500000 0.010560 73.640 0.999944 -16.65 0.999944 -16.65 0.010560 73.056
5.78750000 0.010534 73.602 0.999944 -16.66 0.999944 -16.66 0.010534 73.076
5.79000000 0.010505 73.561 0.999945 -16.67 0.999945 -16.67 0.010505 73.099
5.79250000 0.010473 73.517 0.999945 -16.68 0.999945 -16.68 0.010473 73.125
5.79500000 0.010437 73.468 0.999945 -16.69 0.999945 -16.69 0.010437 73.155
5.79750000 0.010397 73.415 0.999946 -16.70 0.999946 -16.70 0.010397 73.188
5.80000000 0.010352 73.356 0.999946 -16.71 0.999946 -16.71 0.010352 73.227
5.80250000 0.010302 73.290 0.999947 -16.72 0.999947 -16.72 0.010302 73.273
5.80500000 0.010244 73.216 0.999947 -16.73 0.999947 -16.73 0.010244 73.325
5.80750000 0.010177 73.131 0.999948 -16.74 0.999948 -16.74 0.010177 73.387
5.81000000 0.010100 73.035 0.999949 -16.75 0.999949 -16.75 0.010100 73.460
5.81250000 0.010011 72.922 0.999950 -16.77 0.999950 -16.77 0.010011 73.547
5.81500000 0.009905 72.789 0.999951 -16.78 0.999951 -16.78 0.009905 73.654
5.81750000 0.009779 72.629 0.999952 -16.79 0.999952 -16.79 0.009779 73.784
5.82000000 0.009626 72.432 0.999953 -16.81 0.999953 -16.81 0.009626 73.949
5.82250000 0.009438 72.184 0.999955 -16.83 0.999955 -16.83 0.009438 74.161
5.82500000 0.009199 71.860 0.999957 -16.85 0.999957 -16.85 0.009199 74.443
5.82750000 0.008889 71.416 0.999960 -16.88 0.999960 -16.88 0.008889 74.836
5.83000000 0.008470 70.772 0.999963 -16.91 0.999963 -16.91 0.008470 75.419
5.83250000 0.007874 69.747 0.999968 -16.95 0.999968 -16.95 0.007875 76.363
5.83500000 0.006963 67.850 0.999974 -17.01 0.999974 -17.01 0.006964 78.147
5.83750000 0.005409 63.123 0.999983 -17.11 0.999983 -17.11 0.005411 82.700
5.84000000 0.002435 33.238 0.999991 -17.32 0.999991 -17.32 0.002444 112.30
5.84250000 0.011501 -88.50 0.999901 -18.07 0.999901 -18.07 0.011512 -128.0
!< P1 F=5.8425 Eeff=(5.67073312 -5.1705e-6) Z0=(51.7225138 2.35781e-5) R=0.01096219 C=0.00226562 
!< P2 F=5.8425 Eeff=(5.67073312 -5.1705e-6) Z0=(51.7225138 2.35781e-5) R=0.01096219 C=0.00226562 
5.84255000 0.012116 -89.01 0.999892 -18.11 0.999892 -18.11 0.012127 -127.5
5.84260000 0.012767 -89.51 0.999882 -18.14 0.999882 -18.14 0.012778 -127.1
5.84265000 0.013456 -89.98 0.999871 -18.18 0.999871 -18.18 0.013467 -126.7
5.84270000 0.014188 -90.44 0.999859 -18.23 0.999859 -18.23 0.014199 -126.3
5.84275000 0.014966 -90.88 0.999845 -18.27 0.999845 -18.27 0.014977 -126.0
5.84280000 0.015794 -91.31 0.999829 -18.32 0.999829 -18.32 0.015805 -125.7
5.84285000 0.016678 -91.72 0.999812 -18.37 0.999812 -18.37 0.016689 -125.4
5.84290000 0.017623 -92.12 0.999792 -18.43 0.999792 -18.43 0.017634 -125.1
5.84295000 0.018635 -92.52 0.999770 -18.48 0.999770 -18.48 0.018646 -124.8
5.84300000 0.019722 -92.90 0.999745 -18.55 0.999745 -18.55 0.019734 -124.5
5.84305000 0.020893 -93.28 0.999717 -18.61 0.999717 -18.61 0.020905 -124.3
5.84310000 0.022157 -93.65 0.999684 -18.69 0.999684 -18.69 0.022169 -124.1
5.84315000 0.023526 -94.01 0.999647 -18.77 0.999647 -18.77 0.023538 -123.9
5.84320000 0.025013 -94.37 0.999604 -18.85 0.999604 -18.85 0.025025 -123.7
5.84325000 0.026634 -94.73 0.999555 -18.94 0.999555 -18.94 0.026647 -123.5
5.84330000 0.028408 -95.09 0.999497 -19.05 0.999497 -19.05 0.028422 -123.4
5.84335000 0.030358 -95.45 0.999430 -19.16 0.999430 -19.16 0.030372 -123.3
5.84340000 0.032511 -95.82 0.999350 -19.28 0.999350 -19.28 0.032525 -123.2
5.84345000 0.034901 -96.19 0.999256 -19.42 0.999256 -19.42 0.034915 -123.1
5.84350000 0.037567 -96.57 0.999143 -19.57 0.999143 -19.57 0.037582 -123.0
5.84355000 0.040562 -96.96 0.999007 -19.75 0.999007 -19.75 0.040577 -123.0
5.84360000 0.043949 -97.37 0.998841 -19.94 0.998841 -19.94 0.043965 -123.0
5.84365000 0.047811 -97.80 0.998635 -20.16 0.998635 -20.16 0.047828 -123.1
5.84370000 0.052254 -98.26 0.998378 -20.42 0.998378 -20.42 0.052272 -123.1
5.84375000 0.057421 -98.76 0.998051 -20.71 0.998051 -20.71 0.057440 -123.3
5.84380000 0.063502 -99.31 0.997627 -21.06 0.997627 -21.06 0.063523 -123.5
5.84385000 0.070763 -99.93 0.997066 -21.48 0.997066 -21.48 0.070786 -123.7
5.84390000 0.079582 -100.6 0.996304 -21.99 0.996304 -21.99 0.079606 -124.1
5.84395000 0.090516 -101.5 0.995236 -22.62 0.995236 -22.62 0.090543 -124.6
5.84400000 0.104425 -102.5 0.993680 -23.42 0.993680 -23.42 0.104455 -125.3
5.84405000 0.122696 -103.8 0.991299 -24.47 0.991299 -24.47 0.122731 -126.3
5.84410000 0.147729 -105.4 0.987409 -25.92 0.987409 -25.92 0.147769 -127.7
5.84415000 0.184023 -107.8 0.980464 -28.03 0.980464 -28.03 0.184072 -129.8
5.84420000 0.241632 -111.6 0.966190 -31.41 0.966190 -31.41 0.241695 -133.2
!< P1 F=5.8442 Eeff=(5.67073304 -5.17e-6) Z0=(51.7225134 2.3583e-5) R=0.01095459 C=0.00226562 
!< P2 F=5.8442 Eeff=(5.67073304 -5.17e-6) Z0=(51.7225134 2.3583e-5) R=0.01095459 C=0.00226562 
5.84420200 0.244595 -111.8 0.965346 -31.58 0.965346 -31.58 0.244658 -133.4
5.84420400 0.247625 -112.0 0.964471 -31.76 0.964471 -31.76 0.247689 -133.6
5.84420600 0.250725 -112.2 0.963564 -31.94 0.963564 -31.94 0.250790 -133.8
5.84420800 0.253897 -112.4 0.962623 -32.13 0.962623 -32.13 0.253962 -134.0
5.84421000 0.257143 -112.6 0.961647 -32.32 0.961647 -32.32 0.257209 -134.2
5.84421200 0.260466 -112.8 0.960634 -32.52 0.960634 -32.52 0.260533 -134.4
5.84421400 0.263869 -113.0 0.959583 -32.72 0.959583 -32.72 0.263937 -134.6
5.84421600 0.267354 -113.3 0.958491 -32.93 0.958491 -32.93 0.267422 -134.8
5.84421800 0.270924 -113.5 0.957356 -33.14 0.957356 -33.14 0.270993 -135.0
5.84422000 0.274581 -113.7 0.956176 -33.36 0.956176 -33.36 0.274652 -135.2
5.84422200 0.278330 -114.0 0.954949 -33.58 0.954949 -33.58 0.278402 -135.5
5.84422400 0.282174 -114.2 0.953672 -33.81 0.953672 -33.81 0.282246 -135.7
5.84422600 0.286115 -114.5 0.952343 -34.05 0.952343 -34.05 0.286188 -136.0
5.84422800 0.290157 -114.7 0.950958 -34.29 0.950958 -34.29 0.290231 -136.2
5.84423000 0.294305 -115.0 0.949516 -34.54 0.949516 -34.54 0.294380 -136.5
5.84423200 0.298561 -115.3 0.948012 -34.79 0.948012 -34.79 0.298637 -136.7
5.84423400 0.302930 -115.6 0.946443 -35.06 0.946443 -35.06 0.303007 -137.0
5.84423600 0.307416 -115.9 0.944806 -35.33 0.944806 -35.33 0.307494 -137.3
5.84423800 0.312023 -116.2 0.943097 -35.60 0.943097 -35.60 0.312102 -137.6
5.84424000 0.316757 -116.5 0.941311 -35.89 0.941311 -35.89 0.316837 -137.9
5.84424200 0.321621 -116.8 0.939444 -36.18 0.939444 -36.18 0.321702 -138.2
5.84424400 0.326621 -117.1 0.937492 -36.49 0.937492 -36.49 0.326703 -138.5
5.84424600 0.331762 -117.5 0.935449 -36.80 0.935449 -36.80 0.331845 -138.9
5.84424800 0.337049 -117.8 0.933310 -37.12 0.933310 -37.12 0.337134 -139.2
5.84425000 0.342489 -118.2 0.931069 -37.45 0.931069 -37.45 0.342575 -139.5
5.84425200 0.348087 -118.6 0.928720 -37.79 0.928720 -37.79 0.348174 -139.9
5.84425400 0.353849 -118.9 0.926256 -38.14 0.926256 -38.14 0.353938 -140.3
5.84425600 0.359782 -119.3 0.923670 -38.51 0.923670 -38.51 0.359872 -140.7
5.84425800 0.365893 -119.7 0.920954 -38.88 0.920954 -38.88 0.365984 -141.1
5.84426000 0.372188 -120.2 0.918099 -39.27 0.918099 -39.27 0.372281 -141.5
5.84426200 0.378676 -120.6 0.915097 -39.67 0.915097 -39.67 0.378770 -141.9
5.84426400 0.385363 -121.1 0.911938 -40.08 0.911938 -40.08 0.385459 -142.3
5.84426600 0.392258 -121.5 0.908611 -40.51 0.908611 -40.51 0.392356 -142.8
5.84426800 0.399369 -122.0 0.905106 -40.96 0.905106 -40.96 0.399468 -143.3
5.84427000 0.406704 -122.5 0.901409 -41.41 0.901409 -41.41 0.406806 -143.8
5.84427200 0.414273 -123.0 0.897508 -41.89 0.897508 -41.89 0.414376 -144.3
5.84427400 0.422085 -123.6 0.893389 -42.38 0.893389 -42.38 0.422190 -144.8
5.84427600 0.430149 -124.1 0.889035 -42.89 0.889035 -42.89 0.430256 -145.3
5.84427800 0.438475 -124.7 0.884431 -43.42 0.884431 -43.42 0.438583 -145.9
5.84428000 0.447072 -125.3 0.879559 -43.97 0.879559 -43.97 0.447183 -146.5
5.84428200 0.455952 -125.9 0.874398 -44.54 0.874398 -44.54 0.456065 -147.1
5.84428400 0.465124 -126.6 0.868928 -45.13 0.868928 -45.13 0.465239 -147.7
5.84428600 0.474599 -127.2 0.863125 -45.74 0.863125 -45.74 0.474716 -148.4
5.84428800 0.484388 -127.9 0.856966 -46.38 0.856966 -46.38 0.484508 -149.1
5.84429000 0.494501 -128.7 0.850423 -47.04 0.850423 -47.04 0.494623 -149.8
5.84429200 0.504948 -129.4 0.843468 -47.73 0.843468 -47.73 0.505072 -150.6
5.84429400 0.515740 -130.2 0.836068 -48.45 0.836068 -48.45 0.515867 -151.3
5.84429600 0.526886 -131.0 0.828190 -49.19 0.828190 -49.19 0.527015 -152.1
5.84429800 0.538395 -131.9 0.819798 -49.97 0.819798 -49.97 0.538527 -153.0
5.84430000 0.550275 -132.8 0.810851 -50.78 0.810851 -50.78 0.550410 -153.9
5.84430200 0.562534 -133.7 0.801308 -51.62 0.801308 -51.62 0.562672 -154.8
5.84430400 0.575177 -134.7 0.791121 -52.50 0.791121 -52.50 0.575317 -155.8
5.84430600 0.588207 -135.7 0.780243 -53.41 0.780243 -53.41 0.588350 -156.8
5.84430800 0.601626 -136.8 0.768620 -54.36 0.768620 -54.36 0.601772 -157.8
5.84431000 0.615433 -137.9 0.756195 -55.35 0.756195 -55.35 0.615582 -158.9
5.84431200 0.629622 -139.0 0.742911 -56.38 0.742911 -56.38 0.629775 -160.1
5.84431400 0.644185 -140.2 0.728702 -57.46 0.728702 -57.46 0.644342 -161.3
5.84431600 0.659109 -141.5 0.713502 -58.57 0.713502 -58.57 0.659269 -162.5
5.84431800 0.674373 -142.8 0.697243 -59.73 0.697243 -59.73 0.674537 -163.8
5.84432000 0.689953 -144.2 0.679852 -60.94 0.679852 -60.94 0.690120 -165.2
5.84432200 0.705813 -145.7 0.661255 -62.19 0.661255 -62.19 0.705984 -166.6
5.84432400 0.721912 -147.2 0.641379 -63.49 0.641379 -63.49 0.722087 -168.1
5.84432600 0.738198 -148.8 0.620149 -64.83 0.620149 -64.83 0.738377 -169.7
5.84432800 0.754609 -150.4 0.597493 -66.21 0.597493 -66.21 0.754791 -171.4
5.84433000 0.771069 -152.1 0.573344 -67.62 0.573344 -67.62 0.771255 -173.1
5.84433200 0.787492 -153.9 0.547640 -69.07 0.547640 -69.07 0.787681 -174.8
5.84433400 0.803778 -155.8 0.520330 -70.55 0.520330 -70.55 0.803971 -176.7
5.84433600 0.819813 -157.7 0.491375 -72.03 0.491375 -72.03 0.820009 -178.6
5.84433800 0.835471 -159.7 0.460753 -73.51 0.460753 -73.51 0.835671 179.36
5.84434000 0.850613 -161.8 0.428463 -74.97 0.428463 -74.97 0.850817 177.28
5.84434200 0.863750 -163.8 0.397831 -76.24 0.397831 -76.24 0.863957 175.34
!< P1 F=5.844342 Eeff=(5.67073325 -5.1699e-6) Z0=(51.7225143 2.3583e-5) R=0.01096856 C=0.00226562 
!< P2 F=5.844342 Eeff=(5.67073325 -5.1699e-6) Z0=(51.7225143 2.3583e-5) R=0.01096856 C=0.00226562 
5.84434210 0.864445 -163.9 0.396123 -76.30 0.396123 -76.30 0.864652 175.23
5.84434220 0.865140 -164.0 0.394413 -76.37 0.394413 -76.37 0.865347 175.12
5.84434230 0.865833 -164.1 0.392700 -76.44 0.392700 -76.44 0.866040 175.02
5.84434240 0.866524 -164.2 0.390984 -76.50 0.390984 -76.50 0.866732 174.91
5.84434250 0.867213 -164.3 0.389263 -76.57 0.389263 -76.57 0.867421 174.80
5.84434260 0.867900 -164.4 0.387539 -76.64 0.387539 -76.64 0.868108 174.69
5.84434270 0.868585 -164.5 0.385810 -76.70 0.385810 -76.70 0.868793 174.58
5.84434280 0.869268 -164.7 0.384078 -76.77 0.384078 -76.77 0.869475 174.47
5.84434290 0.869948 -164.8 0.382343 -76.83 0.382343 -76.83 0.870156 174.37
5.84434300 0.870627 -164.9 0.380603 -76.89 0.380603 -76.89 0.870835 174.26
5.84434310 0.871303 -165.0 0.378860 -76.96 0.378860 -76.96 0.871511 174.15
5.84434320 0.871977 -165.1 0.377112 -77.02 0.377112 -77.02 0.872186 174.04
5.84434330 0.872649 -165.2 0.375362 -77.09 0.375362 -77.09 0.872858 173.93
5.84434340 0.873319 -165.3 0.373607 -77.15 0.373607 -77.15 0.873528 173.82
5.84434350 0.873986 -165.4 0.371849 -77.21 0.371849 -77.21 0.874195 173.71
5.84434360 0.874652 -165.5 0.370087 -77.27 0.370087 -77.27 0.874861 173.60
5.84434370 0.875315 -165.6 0.368321 -77.34 0.368321 -77.34 0.875524 173.49
5.84434380 0.875975 -165.8 0.366551 -77.40 0.366551 -77.40 0.876185 173.38
5.84434390 0.876634 -165.9 0.364778 -77.46 0.364778 -77.46 0.876843 173.27
5.84434400 0.877290 -166.0 0.363001 -77.52 0.363001 -77.52 0.877500 173.16
5.84434410 0.877944 -166.1 0.361221 -77.58 0.361221 -77.58 0.878154 173.05
5.84434420 0.878595 -166.2 0.359437 -77.64 0.359437 -77.64 0.878805 172.94
5.84434430 0.879244 -166.3 0.357649 -77.70 0.357649 -77.70 0.879454 172.83
5.84434440 0.879891 -166.4 0.355858 -77.76 0.355858 -77.76 0.880101 172.72
5.84434450 0.880535 -166.5 0.354063 -77.82 0.354063 -77.82 0.880746 172.60
5.84434460 0.881177 -166.6 0.352265 -77.88 0.352265 -77.88 0.881388 172.49
5.84434470 0.881816 -166.8 0.350463 -77.94 0.350463 -77.94 0.882027 172.38
5.84434480 0.882453 -166.9 0.348658 -77.99 0.348658 -77.99 0.882664 172.27
5.84434490 0.883088 -167.0 0.346849 -78.05 0.346849 -78.05 0.883298 172.16
5.84434500 0.883719 -167.1 0.345036 -78.11 0.345036 -78.11 0.883930 172.04
5.84434510 0.884349 -167.2 0.343220 -78.16 0.343220 -78.16 0.884560 171.93
5.84434520 0.884975 -167.3 0.341400 -78.22 0.341400 -78.22 0.885187 171.82
5.84434530 0.885600 -167.4 0.339578 -78.27 0.339578 -78.27 0.885811 171.71
5.84434540 0.886221 -167.5 0.337751 -78.33 0.337751 -78.33 0.886433 171.59
5.84434550 0.886840 -167.7 0.335921 -78.38 0.335921 -78.38 0.887052 171.48
5.84434560 0.887456 -167.8 0.334088 -78.43 0.334088 -78.43 0.887668 171.37
5.84434570 0.888070 -167.9 0.332252 -78.49 0.332252 -78.49 0.888282 171.26
5.84434580 0.888681 -168.0 0.330412 -78.54 0.330412 -78.54 0.888893 171.14
5.84434590 0.889289 -168.1 0.328568 -78.59 0.328568 -78.59 0.889502 171.03
5.84434600 0.889895 -168.2 0.326722 -78.64 0.326722 -78.64 0.890107 170.92
5.84434610 0.890498 -168.3 0.324872 -78.69 0.324872 -78.69 0.890710 170.80
5.84434620 0.891098 -168.5 0.323019 -78.74 0.323019 -78.74 0.891311 170.69
5.84434630 0.891695 -168.6 0.321162 -78.79 0.321162 -78.79 0.891908 170.57
5.84434640 0.892290 -168.7 0.319303 -78.84 0.319303 -78.84 0.892503 170.46
5.84434650 0.892882 -168.8 0.317440 -78.88 0.317440 -78.88 0.893095 170.34
5.84434660 0.893470 -168.9 0.315574 -78.93 0.315574 -78.93 0.893684 170.23
5.84434670 0.894057 -169.0 0.313704 -78.98 0.313704 -78.98 0.894270 170.12
5.84434680 0.894640 -169.1 0.311832 -79.02 0.311832 -79.02 0.894853 170.00
5.84434690 0.895220 -169.3 0.309956 -79.07 0.309956 -79.07 0.895434 169.89
5.84434700 0.895797 -169.4 0.308078 -79.11 0.308078 -79.11 0.896011 169.77
5.84434710 0.896372 -169.5 0.306196 -79.15 0.306196 -79.15 0.896586 169.66
5.84434720 0.896943 -169.6 0.304311 -79.19 0.304311 -79.19 0.897158 169.54
5.84434730 0.897512 -169.7 0.302423 -79.23 0.302423 -79.23 0.897726 169.42
5.84434740 0.898078 -169.8 0.300533 -79.27 0.300533 -79.27 0.898292 169.31
5.84434750 0.898640 -170.0 0.298639 -79.31 0.298639 -79.31 0.898855 169.19
5.84434760 0.899200 -170.1 0.296742 -79.35 0.296742 -79.35 0.899414 169.08
5.84434770 0.899756 -170.2 0.294843 -79.39 0.294843 -79.39 0.899971 168.96
5.84434780 0.900310 -170.3 0.292940 -79.42 0.292940 -79.42 0.900525 168.85
5.84434790 0.900860 -170.4 0.291035 -79.46 0.291035 -79.46 0.901075 168.73
5.84434800 0.901408 -170.5 0.289126 -79.49 0.289126 -79.49 0.901623 168.61
5.84434810 0.901952 -170.7 0.287215 -79.53 0.287215 -79.53 0.902167 168.50
5.84434820 0.902493 -170.8 0.285302 -79.56 0.285302 -79.56 0.902708 168.38
5.84434830 0.903031 -170.9 0.283385 -79.59 0.283385 -79.59 0.903246 168.26
5.84434840 0.903565 -171.0 0.281466 -79.62 0.281466 -79.62 0.903781 168.14
5.84434850 0.904097 -171.1 0.279544 -79.65 0.279544 -79.65 0.904313 168.03
5.84434860 0.904625 -171.2 0.277619 -79.67 0.277619 -79.67 0.904841 167.91
5.84434870 0.905150 -171.4 0.275692 -79.70 0.275692 -79.70 0.905366 167.79
5.84434880 0.905672 -171.5 0.273762 -79.73 0.273762 -79.73 0.905888 167.68
5.84434890 0.906191 -171.6 0.271830 -79.75 0.271830 -79.75 0.906407 167.56
5.84434900 0.906706 -171.7 0.269895 -79.77 0.269895 -79.77 0.906922 167.44
5.84434910 0.907218 -171.8 0.267958 -79.79 0.267958 -79.79 0.907435 167.32
5.84434920 0.907727 -172.0 0.266018 -79.81 0.266018 -79.81 0.907943 167.20
5.84434930 0.908232 -172.1 0.264076 -79.83 0.264076 -79.83 0.908449 167.09
5.84434940 0.908734 -172.2 0.262132 -79.85 0.262132 -79.85 0.908951 166.97
5.84434950 0.909233 -172.3 0.260185 -79.86 0.260185 -79.86 0.909450 166.85
5.84434960 0.909728 -172.4 0.258236 -79.87 0.258236 -79.87 0.909945 166.73
5.84434970 0.910220 -172.6 0.256284 -79.89 0.256284 -79.89 0.910437 166.61
5.84434980 0.910709 -172.7 0.254331 -79.90 0.254331 -79.90 0.910926 166.49
5.84434990 0.911194 -172.8 0.252375 -79.91 0.252375 -79.91 0.911411 166.37
5.84435000 0.911675 -172.9 0.250418 -79.91 0.250418 -79.91 0.911892 166.26
5.84435010 0.912153 -173.0 0.248458 -79.92 0.248458 -79.92 0.912371 166.14
5.84435020 0.912628 -173.1 0.246496 -79.92 0.246496 -79.92 0.912845 166.02
5.84435030 0.913099 -173.3 0.244532 -79.92 0.244532 -79.92 0.913316 165.90
5.84435040 0.913566 -173.4 0.242566 -79.92 0.242566 -79.92 0.913784 165.78
5.84435050 0.914030 -173.5 0.240599 -79.92 0.240599 -79.92 0.914248 165.66
5.84435060 0.914491 -173.6 0.238629 -79.91 0.238629 -79.91 0.914709 165.54
5.84435070 0.914948 -173.7 0.236658 -79.91 0.236658 -79.91 0.915166 165.42
5.84435080 0.915401 -173.9 0.234685 -79.90 0.234685 -79.90 0.915619 165.30
5.84435090 0.915851 -174.0 0.232710 -79.89 0.232710 -79.89 0.916069 165.18
5.84435100 0.916297 -174.1 0.230734 -79.88 0.230734 -79.88 0.916515 165.06
5.84435110 0.916739 -174.2 0.228756 -79.86 0.228756 -79.86 0.916957 164.94
5.84435120 0.917178 -174.4 0.226777 -79.84 0.226777 -79.84 0.917396 164.82
5.84435130 0.917613 -174.5 0.224796 -79.82 0.224796 -79.82 0.917831 164.70
5.84435140 0.918044 -174.6 0.222814 -79.80 0.222814 -79.80 0.918263 164.58
5.84435150 0.918472 -174.7 0.220831 -79.77 0.220831 -79.77 0.918690 164.46
5.84435160 0.918895 -174.8 0.218846 -79.74 0.218846 -79.74 0.919114 164.34
5.84435170 0.919316 -175.0 0.216860 -79.71 0.216860 -79.71 0.919534 164.21
5.84435180 0.919732 -175.1 0.214873 -79.68 0.214873 -79.68 0.919951 164.09
5.84435190 0.920145 -175.2 0.212885 -79.64 0.212885 -79.64 0.920364 163.97
5.84435200 0.920553 -175.3 0.210897 -79.60 0.210897 -79.60 0.920773 163.85
5.84435210 0.920958 -175.4 0.208907 -79.56 0.208907 -79.56 0.921178 163.73
5.84435220 0.921360 -175.6 0.206916 -79.52 0.206916 -79.52 0.921579 163.61
5.84435230 0.921757 -175.7 0.204924 -79.47 0.204924 -79.47 0.921976 163.49
5.84435240 0.922150 -175.8 0.202932 -79.41 0.202932 -79.41 0.922370 163.36
5.84435250 0.922540 -175.9 0.200940 -79.36 0.200940 -79.36 0.922760 163.24
5.84435260 0.922926 -176.1 0.198946 -79.30 0.198946 -79.30 0.923146 163.12
5.84435270 0.923308 -176.2 0.196953 -79.23 0.196953 -79.23 0.923527 163.00
5.84435280 0.923686 -176.3 0.194959 -79.17 0.194959 -79.17 0.923905 162.88
5.84435290 0.924060 -176.4 0.192965 -79.09 0.192965 -79.09 0.924280 162.75
5.84435300 0.924430 -176.5 0.190971 -79.02 0.190971 -79.02 0.924650 162.63
5.84435310 0.924796 -176.7 0.188976 -78.94 0.188976 -78.94 0.925016 162.51
5.84435320 0.925158 -176.8 0.186982 -78.86 0.186982 -78.86 0.925378 162.39
5.84435330 0.925516 -176.9 0.184988 -78.77 0.184988 -78.77 0.925736 162.27
5.84435340 0.925871 -177.0 0.182994 -78.67 0.182994 -78.67 0.926091 162.14
5.84435350 0.926221 -177.2 0.181001 -78.58 0.181001 -78.58 0.926441 162.02
5.84435360 0.926567 -177.3 0.179008 -78.47 0.179008 -78.47 0.926787 161.90
5.84435370 0.926909 -177.4 0.177016 -78.36 0.177016 -78.36 0.927129 161.77
5.84435380 0.927247 -177.5 0.175025 -78.25 0.175025 -78.25 0.927468 161.65
5.84435390 0.927581 -177.7 0.173034 -78.13 0.173034 -78.13 0.927802 161.53
5.84435400 0.927911 -177.8 0.171045 -78.01 0.171045 -78.01 0.928132 161.41
5.84435410 0.928237 -177.9 0.169057 -77.88 0.169057 -77.88 0.928458 161.28
5.84435420 0.928559 -178.0 0.167070 -77.74 0.167070 -77.74 0.928779 161.16
5.84435430 0.928876 -178.1 0.165084 -77.59 0.165084 -77.59 0.929097 161.04
5.84435440 0.929190 -178.3 0.163101 -77.44 0.163101 -77.44 0.929411 160.91
5.84435450 0.929499 -178.4 0.161119 -77.29 0.161119 -77.29 0.929720 160.79
5.84435460 0.929804 -178.5 0.159139 -77.12 0.159139 -77.12 0.930025 160.67
5.84435470 0.930105 -178.6 0.157161 -76.95 0.157161 -76.95 0.930327 160.54
5.84435480 0.930402 -178.8 0.155186 -76.77 0.155186 -76.77 0.930623 160.42
5.84435490 0.930695 -178.9 0.153213 -76.59 0.153213 -76.59 0.930916 160.29
5.84435500 0.930984 -179.0 0.151243 -76.39 0.151243 -76.39 0.931205 160.17
5.84435510 0.931268 -179.1 0.149276 -76.19 0.149276 -76.19 0.931489 160.05
5.84435520 0.931548 -179.3 0.147312 -75.98 0.147312 -75.98 0.931769 159.92
5.84435530 0.931824 -179.4 0.145352 -75.76 0.145352 -75.76 0.932045 159.80
5.84435540 0.932095 -179.5 0.143396 -75.52 0.143396 -75.52 0.932317 159.67
5.84435550 0.932363 -179.6 0.141443 -75.28 0.141443 -75.28 0.932584 159.55
5.84435560 0.932626 -179.8 0.139495 -75.03 0.139495 -75.03 0.932847 159.43
5.84435570 0.932885 -179.9 0.137551 -74.77 0.137551 -74.77 0.933106 159.30
5.84435580 0.933139 179.98 0.135612 -74.50 0.135612 -74.50 0.933361 159.18
5.84435590 0.933389 179.86 0.133678 -74.21 0.133678 -74.21 0.933611 159.05
5.84435600 0.933635 179.73 0.131750 -73.91 0.131750 -73.91 0.933857 158.93
5.84435610 0.933877 179.61 0.129827 -73.60 0.129827 -73.60 0.934099 158.80
5.84435620 0.934114 179.48 0.127911 -73.28 0.127911 -73.28 0.934336 158.68
5.84435630 0.934347 179.36 0.126001 -72.94 0.126001 -72.94 0.934569 158.55
5.84435640 0.934576 179.23 0.124098 -72.59 0.124098 -72.59 0.934798 158.43
5.84435650 0.934800 179.11 0.122203 -72.23 0.122203 -72.23 0.935022 158.31
5.84435660 0.935020 178.98 0.120315 -71.85 0.120315 -71.85 0.935242 158.18
5.84435670 0.935236 178.86 0.118436 -71.45 0.118436 -71.45 0.935458 158.06
5.84435680 0.935447 178.73 0.116566 -71.03 0.116566 -71.03 0.935669 157.93
5.84435690 0.935654 178.61 0.114705 -70.60 0.114705 -70.60 0.935876 157.81
5.84435700 0.935856 178.48 0.112855 -70.15 0.112855 -70.15 0.936078 157.68
5.84435710 0.936054 178.36 0.111014 -69.68 0.111014 -69.68 0.936276 157.56
5.84435720 0.936247 178.23 0.109185 -69.19 0.109185 -69.19 0.936470 157.43
5.84435730 0.936437 178.10 0.107368 -68.68 0.107368 -68.68 0.936659 157.31
5.84435740 0.936621 177.98 0.105564 -68.14 0.105564 -68.14 0.936844 157.18
5.84435750 0.936802 177.85 0.103772 -67.59 0.103772 -67.59 0.937024 157.05
5.84435760 0.936978 177.73 0.101995 -67.00 0.101995 -67.00 0.937200 156.93
5.84435770 0.937149 177.60 0.100233 -66.40 0.100233 -66.40 0.937371 156.80
5.84435780 0.937316 177.48 0.098487 -65.77 0.098487 -65.77 0.937538 156.68
5.84435790 0.937478 177.35 0.096758 -65.11 0.096758 -65.11 0.937701 156.55
5.84435800 0.937637 177.22 0.095047 -64.42 0.095047 -64.42 0.937859 156.43
5.84435810 0.937790 177.10 0.093354 -63.70 0.093354 -63.70 0.938013 156.30
5.84435820 0.937939 176.97 0.091682 -62.95 0.091682 -62.95 0.938162 156.18
5.84435830 0.938084 176.85 0.090031 -62.17 0.090031 -62.17 0.938306 156.05
5.84435840 0.938224 176.72 0.088403 -61.35 0.088403 -61.35 0.938447 155.93
5.84435850 0.938360 176.59 0.086799 -60.50 0.086799 -60.50 0.938582 155.80
5.84435860 0.938491 176.47 0.085220 -59.61 0.085220 -59.61 0.938713 155.67
5.84435870 0.938617 176.34 0.083668 -58.69 0.083668 -58.69 0.938840 155.55
5.84435880 0.938740 176.21 0.082144 -57.72 0.082144 -57.72 0.938962 155.42
5.84435890 0.938857 176.09 0.080651 -56.71 0.080651 -56.71 0.939080 155.30
5.84435900 0.938970 175.96 0.079190 -55.66 0.079190 -55.66 0.939193 155.17
5.84435910 0.939079 175.84 0.077762 -54.57 0.077762 -54.57 0.939302 155.05
5.84435920 0.939183 175.71 0.076371 -53.43 0.076371 -53.43 0.939406 154.92
5.84435930 0.939282 175.58 0.075018 -52.25 0.075018 -52.25 0.939505 154.79
5.84435940 0.939377 175.46 0.073704 -51.02 0.073704 -51.02 0.939600 154.67
5.84435950 0.939468 175.33 0.072433 -49.73 0.072433 -49.73 0.939691 154.54
5.84435960 0.939554 175.20 0.071207 -48.40 0.071207 -48.40 0.939777 154.42
5.84435970 0.939635 175.08 0.070028 -47.02 0.070028 -47.02 0.939858 154.29
5.84435980 0.939712 174.95 0.068899 -45.59 0.068899 -45.59 0.939935 154.16
5.84435990 0.939784 174.82 0.067821 -44.11 0.067821 -44.11 0.940007 154.04
5.84436000 0.939852 174.70 0.066799 -42.58 0.066799 -42.58 0.940075 153.91
5.84436010 0.939915 174.57 0.065834 -40.99 0.065834 -40.99 0.940138 153.79
5.84436020 0.939974 174.45 0.064928 -39.36 0.064928 -39.36 0.940197 153.66
5.84436030 0.940028 174.32 0.064085 -37.68 0.064085 -37.68 0.940251 153.54
5.84436040 0.940077 174.19 0.063308 -35.95 0.063308 -35.95 0.940300 153.41
5.84436050 0.940122 174.07 0.062597 -34.18 0.062597 -34.18 0.940345 153.28
5.84436060 0.940163 173.94 0.061957 -32.37 0.061957 -32.37 0.940386 153.16
5.84436070 0.940199 173.81 0.061389 -30.52 0.061389 -30.52 0.940421 153.03
5.84436080 0.940230 173.69 0.060894 -28.63 0.060894 -28.63 0.940453 152.91
5.84436090 0.940257 173.56 0.060476 -26.72 0.060476 -26.72 0.940479 152.78
5.84436100 0.940279 173.43 0.060135 -24.77 0.060135 -24.77 0.940501 152.65
5.84436110 0.940296 173.31 0.059873 -22.81 0.059873 -22.81 0.940519 152.53
5.84436120 0.940309 173.18 0.059693 -20.86 0.059693 -20.86 0.940532 152.40
!< P1 F=5.8443612 Eeff=(5.67073322 -5.1709e-6) Z0=(51.7225139 2.3583e-5) R=0.01097601 C=0.00226562 
!< P2 F=5.8443612 Eeff=(5.67073322 -5.1709e-6) Z0=(51.7225139 2.3583e-5) R=0.01097601 C=0.00226562 
5.84436130 0.940325 173.05 0.059582 -18.81 0.059582 -18.81 0.940548 152.27
5.84436140 0.940329 172.92 0.059564 -16.78 0.059564 -16.78 0.940552 152.14
5.84436150 0.940328 172.79 0.059630 -14.75 0.059630 -14.75 0.940551 152.02
5.84436160 0.940322 172.67 0.059780 -12.72 0.059780 -12.72 0.940545 151.89
5.84436170 0.940312 172.54 0.060014 -10.72 0.060014 -10.72 0.940535 151.76
5.84436180 0.940297 172.41 0.060330 -8.728 0.060330 -8.728 0.940519 151.63
5.84436190 0.940277 172.28 0.060727 -6.765 0.060727 -6.765 0.940500 151.50
5.84436200 0.940252 172.15 0.061203 -4.832 0.061203 -4.832 0.940475 151.37
5.84436210 0.940223 172.02 0.061757 -2.933 0.061757 -2.933 0.940446 151.25
5.84436220 0.940189 171.89 0.062387 -1.074 0.062387 -1.074 0.940412 151.12
5.84436230 0.940150 171.76 0.063090 0.7439 0.063090 0.7439 0.940373 150.99
5.84436240 0.940107 171.63 0.063863 2.5161 0.063863 2.5161 0.940329 150.86
5.84436250 0.940059 171.51 0.064705 4.2407 0.064705 4.2407 0.940281 150.73
5.84436260 0.940006 171.38 0.065612 5.9156 0.065612 5.9156 0.940228 150.60
5.84436270 0.939948 171.25 0.066582 7.5393 0.066582 7.5393 0.940170 150.48
5.84436280 0.939885 171.12 0.067611 9.1109 0.067611 9.1109 0.940108 150.35
5.84436290 0.939818 170.99 0.068698 10.630 0.068698 10.630 0.940041 150.22
5.84436300 0.939747 170.86 0.069839 12.096 0.069839 12.096 0.939969 150.09
5.84436310 0.939670 170.73 0.071032 13.509 0.071032 13.509 0.939892 149.96
5.84436320 0.939589 170.60 0.072274 14.870 0.072274 14.870 0.939811 149.84
5.84436330 0.939503 170.48 0.073563 16.180 0.073563 16.180 0.939725 149.71
5.84436340 0.939412 170.35 0.074895 17.439 0.074895 17.439 0.939634 149.58
5.84436350 0.939317 170.22 0.076270 18.648 0.076270 18.648 0.939539 149.45
5.84436360 0.939217 170.09 0.077683 19.809 0.077683 19.809 0.939439 149.32
5.84436370 0.939112 169.96 0.079134 20.923 0.079134 20.923 0.939334 149.20
5.84436380 0.939003 169.83 0.080620 21.992 0.080620 21.992 0.939225 149.07
5.84436390 0.938889 169.70 0.082138 23.016 0.082138 23.016 0.939111 148.94
5.84436400 0.938770 169.58 0.083688 23.998 0.083688 23.998 0.938992 148.81
5.84436410 0.938647 169.45 0.085267 24.939 0.085267 24.939 0.938869 148.68