! Sonnet Data File
! From: em Version : 14.52
! From Project: TR_2
! Data is De-embedded 
! Data File Written: 01/08/2019 22:37:16
!< HDATE 01/08/2019 00:51:22
!< MDATE 01/08/2019 20:33:59
# GHZ S MA R 50.00000
5.70000000 0.010689 74.244 0.999943 -16.38 0.999943 -16.38 0.010689 73.006
!< P1 F=5.7 Eeff=(5.67073457 -5.1701e-6) Z0=(51.6851264 2.35637e-5) R=0.01127159 C=0.00226057 
!< P2 F=5.7 Eeff=(5.67073457 -5.1701e-6) Z0=(51.6851264 2.35637e-5) R=0.01127159 C=0.00226057 
5.70250000 0.010692 74.236 0.999943 -16.38 0.999943 -16.38 0.010692 73.000
5.70500000 0.010695 74.227 0.999943 -16.39 0.999943 -16.39 0.010695 72.994
5.70750000 0.010698 74.219 0.999943 -16.40 0.999943 -16.40 0.010698 72.987
5.71000000 0.010701 74.211 0.999943 -16.40 0.999943 -16.40 0.010701 72.981
5.71250000 0.010704 74.202 0.999943 -16.41 0.999943 -16.41 0.010704 72.975
5.71500000 0.010706 74.194 0.999943 -16.42 0.999943 -16.42 0.010706 72.969
5.71750000 0.010709 74.185 0.999943 -16.43 0.999943 -16.43 0.010709 72.963
5.72000000 0.010712 74.177 0.999942 -16.43 0.999942 -16.43 0.010712 72.956
5.72250000 0.010714 74.169 0.999942 -16.44 0.999942 -16.44 0.010714 72.950
5.72500000 0.010717 74.160 0.999942 -16.45 0.999942 -16.45 0.010717 72.944
5.72750000 0.010720 74.151 0.999942 -16.46 0.999942 -16.46 0.010720 72.938
5.73000000 0.010722 74.143 0.999942 -16.46 0.999942 -16.46 0.010722 72.932
5.73250000 0.010725 74.134 0.999942 -16.47 0.999942 -16.47 0.010725 72.926
5.73500000 0.010727 74.125 0.999942 -16.48 0.999942 -16.48 0.010727 72.920
5.73750000 0.010729 74.117 0.999942 -16.49 0.999942 -16.49 0.010729 72.915
5.74000000 0.010732 74.108 0.999942 -16.49 0.999942 -16.49 0.010732 72.909
5.74250000 0.010734 74.099 0.999942 -16.50 0.999942 -16.50 0.010734 72.903
5.74500000 0.010736 74.090 0.999942 -16.51 0.999942 -16.51 0.010736 72.897
5.74750000 0.010738 74.081 0.999942 -16.51 0.999942 -16.51 0.010738 72.891
5.75000000 0.010740 74.072 0.999942 -16.52 0.999942 -16.52 0.010740 72.886
5.75250000 0.010742 74.063 0.999942 -16.53 0.999942 -16.53 0.010742 72.880
5.75500000 0.010744 74.054 0.999942 -16.54 0.999942 -16.54 0.010744 72.875
5.75750000 0.010746 74.045 0.999942 -16.54 0.999942 -16.54 0.010746 72.869
5.76000000 0.010748 74.036 0.999942 -16.55 0.999942 -16.55 0.010748 72.864
5.76250000 0.010749 74.027 0.999942 -16.56 0.999942 -16.56 0.010749 72.858
5.76500000 0.010751 74.017 0.999942 -16.57 0.999942 -16.57 0.010751 72.853
5.76750000 0.010753 74.008 0.999942 -16.57 0.999942 -16.57 0.010753 72.848
5.77000000 0.010754 73.998 0.999942 -16.58 0.999942 -16.58 0.010754 72.842
5.77250000 0.010755 73.989 0.999942 -16.59 0.999942 -16.59 0.010755 72.837
5.77500000 0.010757 73.979 0.999942 -16.60 0.999942 -16.60 0.010757 72.832
5.77750000 0.010758 73.969 0.999942 -16.60 0.999942 -16.60 0.010758 72.827
5.78000000 0.010759 73.960 0.999942 -16.61 0.999942 -16.61 0.010759 72.822
5.78250000 0.010760 73.950 0.999942 -16.62 0.999942 -16.62 0.010760 72.817
5.78500000 0.010761 73.940 0.999942 -16.62 0.999942 -16.62 0.010761 72.812
5.78750000 0.010762 73.930 0.999942 -16.63 0.999942 -16.63 0.010762 72.808
5.79000000 0.010762 73.919 0.999942 -16.64 0.999942 -16.64 0.010762 72.803
5.79250000 0.010763 73.909 0.999942 -16.65 0.999942 -16.65 0.010763 72.798
5.79500000 0.010763 73.899 0.999942 -16.65 0.999942 -16.65 0.010763 72.794
5.79750000 0.010764 73.888 0.999942 -16.66 0.999942 -16.66 0.010764 72.790
5.80000000 0.010764 73.878 0.999942 -16.67 0.999942 -16.67 0.010764 72.785
5.80250000 0.010764 73.867 0.999942 -16.68 0.999942 -16.68 0.010764 72.781
5.80500000 0.010763 73.856 0.999942 -16.68 0.999942 -16.68 0.010763 72.777
5.80750000 0.010763 73.845 0.999942 -16.69 0.999942 -16.69 0.010763 72.773
5.81000000 0.010763 73.834 0.999942 -16.70 0.999942 -16.70 0.010763 72.770
5.81250000 0.010762 73.822 0.999942 -16.71 0.999942 -16.71 0.010762 72.766
5.81500000 0.010761 73.811 0.999942 -16.71 0.999942 -16.71 0.010761 72.763
5.81750000 0.010760 73.799 0.999942 -16.72 0.999942 -16.72 0.010760 72.759
5.82000000 0.010759 73.787 0.999942 -16.73 0.999942 -16.73 0.010759 72.756
5.82250000 0.010757 73.775 0.999942 -16.74 0.999942 -16.74 0.010757 72.753
5.82500000 0.010755 73.763 0.999942 -16.74 0.999942 -16.74 0.010755 72.750
5.82750000 0.010753 73.750 0.999942 -16.75 0.999942 -16.75 0.010753 72.748
5.83000000 0.010751 73.737 0.999942 -16.76 0.999942 -16.76 0.010751 72.745
5.83250000 0.010748 73.724 0.999942 -16.77 0.999942 -16.77 0.010748 72.743
5.83500000 0.010745 73.711 0.999942 -16.77 0.999942 -16.77 0.010745 72.741
5.83750000 0.010742 73.697 0.999942 -16.78 0.999942 -16.78 0.010742 72.740
5.84000000 0.010738 73.684 0.999942 -16.79 0.999942 -16.79 0.010738 72.738
5.84250000 0.010734 73.669 0.999942 -16.80 0.999942 -16.80 0.010734 72.737
5.84500000 0.010730 73.655 0.999942 -16.81 0.999942 -16.81 0.010730 72.736
5.84750000 0.010725 73.640 0.999942 -16.81 0.999942 -16.81 0.010725 72.736
5.85000000 0.010720 73.624 0.999942 -16.82 0.999942 -16.82 0.010720 72.736
5.85250000 0.010714 73.609 0.999942 -16.83 0.999942 -16.83 0.010714 72.736
5.85500000 0.010708 73.592 0.999943 -16.84 0.999943 -16.84 0.010708 72.737
5.85750000 0.010701 73.576 0.999943 -16.84 0.999943 -16.84 0.010701 72.738
5.86000000 0.010694 73.558 0.999943 -16.85 0.999943 -16.85 0.010694 72.739
5.86250000 0.010686 73.540 0.999943 -16.86 0.999943 -16.86 0.010686 72.741
5.86500000 0.010677 73.522 0.999943 -16.87 0.999943 -16.87 0.010677 72.744
5.86750000 0.010667 73.502 0.999943 -16.88 0.999943 -16.88 0.010667 72.747
5.87000000 0.010657 73.482 0.999943 -16.88 0.999943 -16.88 0.010657 72.751
5.87250000 0.010645 73.461 0.999943 -16.89 0.999943 -16.89 0.010645 72.756
5.87500000 0.010633 73.439 0.999943 -16.90 0.999943 -16.90 0.010633 72.762
5.87750000 0.010619 73.416 0.999943 -16.91 0.999943 -16.91 0.010619 72.768
5.88000000 0.010604 73.392 0.999944 -16.92 0.999944 -16.92 0.010604 72.776
5.88250000 0.010588 73.367 0.999944 -16.93 0.999944 -16.93 0.010588 72.785
5.88500000 0.010570 73.340 0.999944 -16.93 0.999944 -16.93 0.010570 72.795
5.88750000 0.010551 73.311 0.999944 -16.94 0.999944 -16.94 0.010551 72.806
5.89000000 0.010529 73.281 0.999944 -16.95 0.999944 -16.95 0.010529 72.819
5.89250000 0.010506 73.249 0.999945 -16.96 0.999945 -16.96 0.010506 72.834
5.89500000 0.010480 73.214 0.999945 -16.97 0.999945 -16.97 0.010480 72.851
5.89750000 0.010451 73.176 0.999945 -16.98 0.999945 -16.98 0.010451 72.870
5.90000000 0.010419 73.136 0.999946 -16.99 0.999946 -16.99 0.010419 72.892
5.90250000 0.010383 73.092 0.999946 -17.00 0.999946 -17.00 0.010383 72.917
5.90500000 0.010344 73.043 0.999946 -17.01 0.999946 -17.01 0.010344 72.946
5.90750000 0.010299 72.990 0.999947 -17.02 0.999947 -17.02 0.010299 72.979
5.91000000 0.010249 72.931 0.999947 -17.03 0.999947 -17.03 0.010249 73.018
5.91250000 0.010192 72.865 0.999948 -17.04 0.999948 -17.04 0.010192 73.062
5.91500000 0.010126 72.790 0.999949 -17.05 0.999949 -17.05 0.010126 73.115
5.91750000 0.010051 72.704 0.999949 -17.06 0.999949 -17.06 0.010051 73.177
5.92000000 0.009964 72.605 0.999950 -17.07 0.999950 -17.07 0.009964 73.251
5.92250000 0.009862 72.489 0.999951 -17.09 0.999951 -17.09 0.009862 73.341
5.92500000 0.009740 72.350 0.999952 -17.10 0.999952 -17.10 0.009740 73.451
5.92750000 0.009594 72.181 0.999954 -17.12 0.999954 -17.12 0.009594 73.589
5.93000000 0.009415 71.970 0.999955 -17.13 0.999955 -17.13 0.009415 73.764
5.93250000 0.009192 71.699 0.999957 -17.16 0.999957 -17.16 0.009192 73.996
5.93500000 0.008904 71.335 0.999960 -17.18 0.999960 -17.18 0.008905 74.313
5.93750000 0.008523 70.819 0.999963 -17.21 0.999963 -17.21 0.008523 74.771
5.94000000 0.007994 70.029 0.999967 -17.25 0.999967 -17.25 0.007994 75.488
5.94250000 0.007210 68.660 0.999973 -17.30 0.999973 -17.30 0.007211 76.757
5.94500000 0.005941 65.687 0.999980 -17.38 0.999980 -17.38 0.005942 79.583
5.94750000 0.003581 54.270 0.999989 -17.54 0.999989 -17.54 0.003584 90.776
5.95000000 0.004039 -74.87 0.999978 -17.94 0.999978 -17.94 0.004050 -141.4
!< P1 F=5.95 Eeff=(5.67072448 -5.1709e-6) Z0=(51.6850645 2.35637e-5) R=0.0107879 C=0.00226057 
!< P2 F=5.95 Eeff=(5.67072448 -5.1709e-6) Z0=(51.6850645 2.35637e-5) R=0.0107879 C=0.00226057 
5.95002000 0.004133 -75.45 0.999977 -17.94 0.999977 -17.94 0.004144 -140.8
5.95004000 0.004229 -76.02 0.999977 -17.95 0.999977 -17.95 0.004240 -140.2
5.95006000 0.004327 -76.57 0.999976 -17.96 0.999976 -17.96 0.004338 -139.7
5.95008000 0.004426 -77.10 0.999975 -17.96 0.999975 -17.96 0.004437 -139.2
5.95010000 0.004527 -77.62 0.999975 -17.97 0.999975 -17.97 0.004538 -138.7
5.95012000 0.004630 -78.12 0.999974 -17.97 0.999974 -17.97 0.004641 -138.2
5.95014000 0.004735 -78.61 0.999973 -17.98 0.999973 -17.98 0.004746 -137.7
5.95016000 0.004842 -79.08 0.999973 -17.99 0.999973 -17.99 0.004852 -137.2
5.95018000 0.004950 -79.54 0.999972 -17.99 0.999972 -17.99 0.004961 -136.8
5.95020000 0.005061 -79.99 0.999971 -18.00 0.999971 -18.00 0.005071 -136.4
5.95022000 0.005173 -80.42 0.999970 -18.01 0.999970 -18.01 0.005184 -135.9
5.95024000 0.005287 -80.85 0.999969 -18.01 0.999969 -18.01 0.005298 -135.5
5.95026000 0.005404 -81.26 0.999969 -18.02 0.999969 -18.02 0.005414 -135.1
5.95028000 0.005522 -81.65 0.999968 -18.03 0.999968 -18.03 0.005532 -134.7
5.95030000 0.005643 -82.04 0.999967 -18.04 0.999967 -18.04 0.005653 -134.4
5.95032000 0.005765 -82.42 0.999966 -18.04 0.999966 -18.04 0.005775 -134.0
5.95034000 0.005890 -82.79 0.999965 -18.05 0.999965 -18.05 0.005900 -133.6
5.95036000 0.006017 -83.15 0.999964 -18.06 0.999964 -18.06 0.006027 -133.3
5.95038000 0.006146 -83.50 0.999963 -18.07 0.999963 -18.07 0.006156 -133.0
5.95040000 0.006277 -83.84 0.999962 -18.07 0.999962 -18.07 0.006287 -132.6
5.95042000 0.006411 -84.17 0.999960 -18.08 0.999960 -18.08 0.006420 -132.3
5.95044000 0.006547 -84.49 0.999959 -18.09 0.999959 -18.09 0.006556 -132.0
5.95046000 0.006685 -84.81 0.999958 -18.10 0.999958 -18.10 0.006695 -131.7
5.95048000 0.006826 -85.12 0.999957 -18.11 0.999957 -18.11 0.006836 -131.4
5.95050000 0.006969 -85.42 0.999955 -18.12 0.999955 -18.12 0.006979 -131.1
5.95052000 0.007115 -85.71 0.999954 -18.12 0.999954 -18.12 0.007125 -130.9
5.95054000 0.007264 -86.00 0.999953 -18.13 0.999953 -18.13 0.007273 -130.6
5.95056000 0.007415 -86.28 0.999951 -18.14 0.999951 -18.14 0.007425 -130.3
5.95058000 0.007569 -86.56 0.999950 -18.15 0.999950 -18.15 0.007579 -130.1
5.95060000 0.007726 -86.82 0.999948 -18.16 0.999948 -18.16 0.007735 -129.8
5.95062000 0.007886 -87.09 0.999946 -18.17 0.999946 -18.17 0.007895 -129.6
5.95064000 0.008048 -87.34 0.999945 -18.18 0.999945 -18.18 0.008058 -129.3
5.95066000 0.008214 -87.59 0.999943 -18.19 0.999943 -18.19 0.008224 -129.1
5.95068000 0.008383 -87.84 0.999941 -18.20 0.999941 -18.20 0.008392 -128.9
5.95070000 0.008555 -88.08 0.999939 -18.21 0.999939 -18.21 0.008564 -128.7
5.95072000 0.008730 -88.32 0.999937 -18.22 0.999937 -18.22 0.008740 -128.4
5.95074000 0.008909 -88.55 0.999935 -18.23 0.999935 -18.23 0.008918 -128.2
5.95076000 0.009091 -88.77 0.999933 -18.24 0.999933 -18.24 0.009101 -128.0
5.95078000 0.009277 -89.00 0.999931 -18.25 0.999931 -18.25 0.009286 -127.8
5.95080000 0.009466 -89.21 0.999929 -18.26 0.999929 -18.26 0.009475 -127.6
5.95082000 0.009659 -89.43 0.999926 -18.27 0.999926 -18.27 0.009669 -127.4
5.95084000 0.009856 -89.64 0.999924 -18.28 0.999924 -18.28 0.009865 -127.2
5.95086000 0.010057 -89.84 0.999921 -18.30 0.999921 -18.30 0.010066 -127.1
5.95088000 0.010262 -90.05 0.999919 -18.31 0.999919 -18.31 0.010271 -126.9
5.95090000 0.010471 -90.24 0.999916 -18.32 0.999916 -18.32 0.010480 -126.7
5.95092000 0.010684 -90.44 0.999913 -18.33 0.999913 -18.33 0.010693 -126.5
5.95094000 0.010902 -90.63 0.999910 -18.35 0.999910 -18.35 0.010911 -126.4
5.95096000 0.011124 -90.82 0.999907 -18.36 0.999907 -18.36 0.011134 -126.2
5.95098000 0.011351 -91.00 0.999904 -18.37 0.999904 -18.37 0.011361 -126.1
5.95100000 0.011583 -91.19 0.999901 -18.39 0.999901 -18.39 0.011593 -125.9
5.95102000 0.011820 -91.36 0.999897 -18.40 0.999897 -18.40 0.011829 -125.7
5.95104000 0.012062 -91.54 0.999894 -18.41 0.999894 -18.41 0.012071 -125.6
5.95106000 0.012310 -91.71 0.999890 -18.43 0.999890 -18.43 0.012319 -125.5
5.95108000 0.012562 -91.89 0.999886 -18.44 0.999886 -18.44 0.012572 -125.3
5.95110000 0.012821 -92.05 0.999882 -18.46 0.999882 -18.46 0.012830 -125.2
5.95112000 0.013085 -92.22 0.999878 -18.47 0.999878 -18.47 0.013095 -125.0
5.95114000 0.013356 -92.38 0.999873 -18.49 0.999873 -18.49 0.013365 -124.9
5.95116000 0.013632 -92.54 0.999869 -18.50 0.999869 -18.50 0.013642 -124.8
5.95118000 0.013915 -92.70 0.999864 -18.52 0.999864 -18.52 0.013925 -124.7
5.95120000 0.014205 -92.86 0.999859 -18.54 0.999859 -18.54 0.014214 -124.5
5.95122000 0.014502 -93.01 0.999854 -18.55 0.999854 -18.55 0.014511 -124.4
5.95124000 0.014806 -93.17 0.999848 -18.57 0.999848 -18.57 0.014815 -124.3
5.95126000 0.015117 -93.32 0.999843 -18.59 0.999843 -18.59 0.015126 -124.2
5.95128000 0.015436 -93.47 0.999837 -18.61 0.999837 -18.61 0.015445 -124.1
5.95130000 0.015763 -93.61 0.999830 -18.63 0.999830 -18.63 0.015772 -124.0
5.95132000 0.016098 -93.76 0.999824 -18.65 0.999824 -18.65 0.016108 -123.9
5.95134000 0.016442 -93.90 0.999817 -18.67 0.999817 -18.67 0.016451 -123.8
5.95136000 0.016795 -94.05 0.999810 -18.69 0.999810 -18.69 0.016804 -123.7
5.95138000 0.017157 -94.19 0.999803 -18.71 0.999803 -18.71 0.017166 -123.6
5.95140000 0.017528 -94.33 0.999795 -18.73 0.999795 -18.73 0.017538 -123.5
5.95142000 0.017910 -94.47 0.999787 -18.75 0.999787 -18.75 0.017920 -123.4
5.95144000 0.018302 -94.60 0.999778 -18.77 0.999778 -18.77 0.018312 -123.3
5.95146000 0.018705 -94.74 0.999769 -18.80 0.999769 -18.80 0.018715 -123.2
5.95148000 0.019119 -94.87 0.999760 -18.82 0.999760 -18.82 0.019129 -123.1
5.95150000 0.019545 -95.01 0.999750 -18.85 0.999750 -18.85 0.019555 -123.0
5.95152000 0.019983 -95.14 0.999740 -18.87 0.999740 -18.87 0.019993 -122.9
5.95154000 0.020434 -95.27 0.999729 -18.90 0.999729 -18.90 0.020444 -122.9
5.95156000 0.020898 -95.40 0.999717 -18.92 0.999717 -18.92 0.020909 -122.8
5.95158000 0.021377 -95.53 0.999705 -18.95 0.999705 -18.95 0.021387 -122.7
5.95160000 0.021870 -95.66 0.999693 -18.98 0.999693 -18.98 0.021880 -122.7
5.95162000 0.022378 -95.79 0.999679 -19.01 0.999679 -19.01 0.022388 -122.6
5.95164000 0.022902 -95.92 0.999665 -19.04 0.999665 -19.04 0.022913 -122.5
5.95166000 0.023443 -96.05 0.999650 -19.07 0.999650 -19.07 0.023454 -122.5
5.95168000 0.024002 -96.18 0.999635 -19.10 0.999635 -19.10 0.024012 -122.4
5.95170000 0.024579 -96.30 0.999618 -19.14 0.999618 -19.14 0.024589 -122.3
5.95172000 0.025175 -96.43 0.999600 -19.17 0.999600 -19.17 0.025186 -122.3
5.95174000 0.025792 -96.56 0.999582 -19.21 0.999582 -19.21 0.025803 -122.2
5.95176000 0.026430 -96.69 0.999562 -19.24 0.999562 -19.24 0.026441 -122.2
5.95178000 0.027090 -96.81 0.999541 -19.28 0.999541 -19.28 0.027102 -122.1
5.95180000 0.027775 -96.94 0.999519 -19.32 0.999519 -19.32 0.027786 -122.1
5.95182000 0.028484 -97.07 0.999496 -19.36 0.999496 -19.36 0.028495 -122.0
5.95184000 0.029220 -97.20 0.999471 -19.40 0.999471 -19.40 0.029231 -122.0
5.95186000 0.029983 -97.33 0.999444 -19.45 0.999444 -19.45 0.029995 -122.0
5.95188000 0.030777 -97.46 0.999416 -19.49 0.999416 -19.49 0.030788 -121.9
5.95190000 0.031601 -97.59 0.999386 -19.54 0.999386 -19.54 0.031613 -121.9
5.95192000 0.032459 -97.72 0.999354 -19.59 0.999354 -19.59 0.032471 -121.9
5.95194000 0.033351 -97.85 0.999320 -19.64 0.999320 -19.64 0.033364 -121.9
5.95196000 0.034281 -97.98 0.999283 -19.69 0.999283 -19.69 0.034294 -121.8
5.95198000 0.035251 -98.12 0.999244 -19.75 0.999244 -19.75 0.035264 -121.8
5.95200000 0.036264 -98.25 0.999201 -19.81 0.999201 -19.81 0.036276 -121.8
5.95202000 0.037321 -98.39 0.999156 -19.87 0.999156 -19.87 0.037334 -121.8
5.95204000 0.038427 -98.53 0.999107 -19.93 0.999107 -19.93 0.038440 -121.8
5.95206000 0.039584 -98.68 0.999055 -20.00 0.999055 -20.00 0.039597 -121.8
5.95208000 0.040797 -98.82 0.998998 -20.07 0.998998 -20.07 0.040810 -121.8
5.95210000 0.042069 -98.97 0.998937 -20.14 0.998937 -20.14 0.042083 -121.8
5.95212000 0.043405 -99.12 0.998871 -20.22 0.998871 -20.22 0.043419 -121.8
5.95214000 0.044809 -99.27 0.998799 -20.30 0.998799 -20.30 0.044824 -121.8
5.95216000 0.046288 -99.43 0.998721 -20.38 0.998721 -20.38 0.046303 -121.8
5.95218000 0.047847 -99.59 0.998637 -20.47 0.998637 -20.47 0.047862 -121.9
5.95220000 0.049493 -99.76 0.998544 -20.57 0.998544 -20.57 0.049508 -121.9
5.95222000 0.051233 -99.93 0.998443 -20.67 0.998443 -20.67 0.051249 -122.0
5.95224000 0.053076 -100.1 0.998332 -20.77 0.998332 -20.77 0.053092 -122.0
5.95226000 0.055031 -100.3 0.998210 -20.89 0.998210 -20.89 0.055047 -122.1
5.95228000 0.057108 -100.5 0.998076 -21.01 0.998076 -21.01 0.057125 -122.1
5.95230000 0.059320 -100.7 0.997928 -21.13 0.997928 -21.13 0.059337 -122.2
5.95232000 0.061680 -100.9 0.997764 -21.27 0.997764 -21.27 0.061697 -122.3
5.95234000 0.064202 -101.1 0.997581 -21.41 0.997581 -21.41 0.064220 -122.4
5.95236000 0.066905 -101.3 0.997378 -21.57 0.997378 -21.57 0.066924 -122.5
5.95238000 0.069808 -101.6 0.997150 -21.73 0.997150 -21.73 0.069828 -122.6
5.95240000 0.072935 -101.8 0.996893 -21.91 0.996893 -21.91 0.072955 -122.7
5.95242000 0.076312 -102.1 0.996604 -22.11 0.996604 -22.11 0.076333 -122.9
5.95244000 0.079970 -102.3 0.996277 -22.32 0.996277 -22.32 0.079991 -123.0
5.95246000 0.083946 -102.6 0.995903 -22.55 0.995903 -22.55 0.083968 -123.2
5.95248000 0.088283 -103.0 0.995475 -22.80 0.995475 -22.80 0.088306 -123.4
5.95250000 0.093031 -103.3 0.994982 -23.07 0.994982 -23.07 0.093055 -123.7
5.95252000 0.098253 -103.7 0.994410 -23.37 0.994410 -23.37 0.098278 -123.9
5.95254000 0.104021 -104.1 0.993742 -23.70 0.993742 -23.70 0.104047 -124.2
5.95256000 0.110426 -104.5 0.992955 -24.07 0.992955 -24.07 0.110453 -124.6
5.95258000 0.117578 -105.0 0.992021 -24.49 0.992021 -24.49 0.117607 -125.0
5.95260000 0.125614 -105.6 0.990901 -24.95 0.990901 -24.95 0.125645 -125.4
5.95262000 0.134707 -106.2 0.989544 -25.47 0.989544 -25.47 0.134740 -125.9
5.95264000 0.145077 -106.9 0.987880 -26.08 0.987880 -26.08 0.145112 -126.5
5.95266000 0.157008 -107.7 0.985809 -26.77 0.985809 -26.77 0.157045 -127.2
5.95268000 0.170874 -108.6 0.983193 -27.57 0.983193 -27.57 0.170914 -128.0
5.95270000 0.187175 -109.6 0.979826 -28.52 0.979826 -28.52 0.187218 -128.9
5.95272000 0.206592 -110.9 0.975401 -29.66 0.975401 -29.66 0.206640 -130.1
5.95274000 0.230079 -112.4 0.969438 -31.03 0.969438 -31.03 0.230131 -131.5
5.95276000 0.258997 -114.3 0.961160 -32.74 0.961160 -32.74 0.259055 -133.3
5.95278000 0.295344 -116.6 0.949249 -34.91 0.949249 -34.91 0.295409 -135.6
5.95280000 0.342118 -119.7 0.931357 -37.74 0.931357 -37.74 0.342193 -138.6
5.95282000 0.402380 -123.7 0.903776 -41.45 0.903776 -41.45 0.402467 -142.5
!< P1 F=5.95282 Eeff=(5.67072445 -5.1705e-6) Z0=(51.6850641 2.35685e-5) R=0.01077801 C=0.00226057 
!< P2 F=5.95282 Eeff=(5.67072445 -5.1705e-6) Z0=(51.6850641 2.35685e-5) R=0.01077801 C=0.00226057 
5.95282050 0.404160 -123.9 0.902880 -41.56 0.902880 -41.56 0.404248 -142.6
5.95282100 0.405954 -124.0 0.901972 -41.68 0.901972 -41.68 0.406042 -142.7
5.95282150 0.407761 -124.1 0.901052 -41.79 0.901052 -41.79 0.407850 -142.9
5.95282200 0.409583 -124.2 0.900120 -41.90 0.900120 -41.90 0.409671 -143.0
5.95282250 0.411418 -124.4 0.899176 -42.02 0.899176 -42.02 0.411507 -143.1
5.95282300 0.413267 -124.5 0.898220 -42.13 0.898220 -42.13 0.413357 -143.2
5.95282350 0.415131 -124.6 0.897250 -42.25 0.897250 -42.25 0.415220 -143.4
5.95282400 0.417008 -124.7 0.896268 -42.37 0.896268 -42.37 0.417099 -143.5
5.95282450 0.418901 -124.9 0.895273 -42.49 0.895273 -42.49 0.418991 -143.6
5.95282500 0.420808 -125.0 0.894264 -42.61 0.894264 -42.61 0.420899 -143.7
5.95282550 0.422729 -125.1 0.893242 -42.73 0.893242 -42.73 0.422821 -143.9
5.95282600 0.424666 -125.3 0.892206 -42.85 0.892206 -42.85 0.424757 -144.0
5.95282650 0.426617 -125.4 0.891156 -42.98 0.891156 -42.98 0.426709 -144.1
5.95282700 0.428584 -125.5 0.890092 -43.10 0.890092 -43.10 0.428676 -144.3
5.95282750 0.430566 -125.7 0.889013 -43.23 0.889013 -43.23 0.430659 -144.4
5.95282800 0.432563 -125.8 0.887919 -43.35 0.887919 -43.35 0.432656 -144.5
5.95282850 0.434576 -126.0 0.886811 -43.48 0.886811 -43.48 0.434670 -144.7
5.95282900 0.436604 -126.1 0.885687 -43.61 0.885687 -43.61 0.436699 -144.8
5.95282950 0.438649 -126.2 0.884547 -43.74 0.884547 -43.74 0.438743 -145.0
5.95283000 0.440709 -126.4 0.883392 -43.87 0.883392 -43.87 0.440804 -145.1
5.95283050 0.442786 -126.5 0.882221 -44.00 0.882221 -44.00 0.442881 -145.2
5.95283100 0.444879 -126.7 0.881034 -44.14 0.881034 -44.14 0.444975 -145.4
5.95283150 0.446988 -126.8 0.879830 -44.27 0.879830 -44.27 0.447084 -145.5
5.95283200 0.449114 -127.0 0.878609 -44.41 0.878609 -44.41 0.449211 -145.7
5.95283250 0.451257 -127.1 0.877371 -44.54 0.877371 -44.54 0.451354 -145.8
5.95283300 0.453416 -127.3 0.876115 -44.68 0.876115 -44.68 0.453514 -146.0
5.95283350 0.455593 -127.4 0.874842 -44.82 0.874842 -44.82 0.455691 -146.1
5.95283400 0.457786 -127.6 0.873550 -44.96 0.873550 -44.96 0.457885 -146.3
5.95283450 0.459997 -127.7 0.872240 -45.11 0.872240 -45.11 0.460096 -146.4
5.95283500 0.462226 -127.9 0.870912 -45.25 0.870912 -45.25 0.462325 -146.6
5.95283550 0.464472 -128.0 0.869564 -45.39 0.869564 -45.39 0.464572 -146.7
5.95283600 0.466736 -128.2 0.868197 -45.54 0.868197 -45.54 0.466836 -146.9
5.95283650 0.469018 -128.4 0.866810 -45.69 0.866810 -45.69 0.469119 -147.0
5.95283700 0.471318 -128.5 0.865403 -45.84 0.865403 -45.84 0.471419 -147.2
5.95283750 0.473636 -128.7 0.863976 -45.99 0.863976 -45.99 0.473738 -147.4
5.95283800 0.475973 -128.9 0.862528 -46.14 0.862528 -46.14 0.476075 -147.5
5.95283850 0.478328 -129.0 0.861059 -46.29 0.861059 -46.29 0.478430 -147.7
5.95283900 0.480701 -129.2 0.859568 -46.45 0.859568 -46.45 0.480805 -147.9
5.95283950 0.483094 -129.4 0.858056 -46.60 0.858056 -46.60 0.483198 -148.0
5.95284000 0.485506 -129.5 0.856521 -46.76 0.856521 -46.76 0.485610 -148.2
5.95284050 0.487936 -129.7 0.854963 -46.92 0.854963 -46.92 0.488041 -148.4
5.95284100 0.490386 -129.9 0.853383 -47.08 0.853383 -47.08 0.490491 -148.5
5.95284150 0.492856 -130.1 0.851778 -47.24 0.851778 -47.24 0.492961 -148.7
5.95284200 0.495345 -130.2 0.850150 -47.41 0.850150 -47.41 0.495451 -148.9
5.95284250 0.497853 -130.4 0.848498 -47.57 0.848498 -47.57 0.497960 -149.1
5.95284300 0.500382 -130.6 0.846821 -47.74 0.846821 -47.74 0.500489 -149.3
5.95284350 0.502931 -130.8 0.845118 -47.91 0.845118 -47.91 0.503038 -149.4
5.95284400 0.505499 -131.0 0.843390 -48.08 0.843390 -48.08 0.505608 -149.6
5.95284450 0.508088 -131.2 0.841636 -48.25 0.841636 -48.25 0.508197 -149.8
5.95284500 0.510698 -131.4 0.839855 -48.42 0.839855 -48.42 0.510807 -150.0
5.95284550 0.513328 -131.5 0.838047 -48.60 0.838047 -48.60 0.513438 -150.2
5.95284600 0.515979 -131.7 0.836211 -48.77 0.836211 -48.77 0.516089 -150.4
5.95284650 0.518650 -131.9 0.834347 -48.95 0.834347 -48.95 0.518761 -150.6
5.95284700 0.521343 -132.1 0.832455 -49.13 0.832455 -49.13 0.521454 -150.8
5.95284750 0.524057 -132.3 0.830534 -49.31 0.830534 -49.31 0.524169 -151.0
5.95284800 0.526792 -132.5 0.828583 -49.50 0.828583 -49.50 0.526904 -151.2
5.95284850 0.529548 -132.7 0.826602 -49.68 0.826602 -49.68 0.529661 -151.4
5.95284900 0.532326 -132.9 0.824590 -49.87 0.824590 -49.87 0.532440 -151.6
5.95284950 0.535125 -133.2 0.822547 -50.06 0.822547 -50.06 0.535240 -151.8
5.95285000 0.537947 -133.4 0.820471 -50.25 0.820471 -50.25 0.538061 -152.0
5.95285050 0.540790 -133.6 0.818364 -50.44 0.818364 -50.44 0.540905 -152.2
5.95285100 0.543655 -133.8 0.816224 -50.64 0.816224 -50.64 0.543771 -152.4
5.95285150 0.546542 -134.0 0.814049 -50.83 0.814049 -50.83 0.546658 -152.6
5.95285200 0.549451 -134.2 0.811841 -51.03 0.811841 -51.03 0.549568 -152.8
5.95285250 0.552382 -134.4 0.809598 -51.23 0.809598 -51.23 0.552500 -153.1
5.95285300 0.555336 -134.7 0.807319 -51.43 0.807319 -51.43 0.555454 -153.3
5.95285350 0.558312 -134.9 0.805005 -51.64 0.805005 -51.64 0.558431 -153.5
5.95285400 0.561311 -135.1 0.802653 -51.85 0.802653 -51.85 0.561431 -153.7
5.95285450 0.564332 -135.4 0.800264 -52.05 0.800264 -52.05 0.564452 -154.0
5.95285500 0.567376 -135.6 0.797837 -52.26 0.797837 -52.26 0.567497 -154.2
5.95285550 0.570443 -135.8 0.795372 -52.48 0.795372 -52.48 0.570564 -154.4
5.95285600 0.573532 -136.1 0.792866 -52.69 0.792866 -52.69 0.573654 -154.7
5.95285650 0.576644 -136.3 0.790321 -52.91 0.790321 -52.91 0.576767 -154.9
5.95285700 0.579780 -136.5 0.787734 -53.13 0.787734 -53.13 0.579903 -155.1
5.95285750 0.582937 -136.8 0.785106 -53.35 0.785106 -53.35 0.583061 -155.4
5.95285800 0.586118 -137.0 0.782435 -53.57 0.782435 -53.57 0.586243 -155.6
5.95285850 0.589322 -137.3 0.779722 -53.80 0.779722 -53.80 0.589447 -155.9
5.95285900 0.592549 -137.5 0.776964 -54.03 0.776964 -54.03 0.592675 -156.1
5.95285950 0.595798 -137.8 0.774161 -54.26 0.774161 -54.26 0.595925 -156.4
5.95286000 0.599071 -138.1 0.771313 -54.49 0.771313 -54.49 0.599198 -156.6
5.95286050 0.602366 -138.3 0.768419 -54.72 0.768419 -54.72 0.602494 -156.9
5.95286100 0.605685 -138.6 0.765477 -54.96 0.765477 -54.96 0.605813 -157.2
5.95286150 0.609026 -138.9 0.762488 -55.20 0.762488 -55.20 0.609155 -157.4
5.95286200 0.612390 -139.1 0.759449 -55.44 0.759449 -55.44 0.612519 -157.7
5.95286250 0.615776 -139.4 0.756361 -55.69 0.756361 -55.69 0.615907 -158.0
5.95286300 0.619185 -139.7 0.753222 -55.93 0.753222 -55.93 0.619316 -158.2
5.95286350 0.622616 -140.0 0.750032 -56.18 0.750032 -56.18 0.622748 -158.5
5.95286400 0.626070 -140.2 0.746789 -56.43 0.746789 -56.43 0.626203 -158.8
5.95286450 0.629546 -140.5 0.743493 -56.69 0.743493 -56.69 0.629680 -159.1
5.95286500 0.633045 -140.8 0.740143 -56.94 0.740143 -56.94 0.633179 -159.4
5.95286550 0.636565 -141.1 0.736738 -57.20 0.736738 -57.20 0.636699 -159.7
5.95286600 0.640106 -141.4 0.733276 -57.46 0.733276 -57.46 0.640242 -159.9
5.95286650 0.643670 -141.7 0.729758 -57.73 0.729758 -57.73 0.643806 -160.2
5.95286700 0.647254 -142.0 0.726182 -57.99 0.726182 -57.99 0.647391 -160.5
5.95286750 0.650860 -142.3 0.722546 -58.26 0.722546 -58.26 0.650998 -160.8
5.95286800 0.654487 -142.6 0.718851 -58.54 0.718851 -58.54 0.654625 -161.1
5.95286850 0.658134 -142.9 0.715095 -58.81 0.715095 -58.81 0.658273 -161.5
5.95286900 0.661801 -143.2 0.711276 -59.09 0.711276 -59.09 0.661941 -161.8
5.95286950 0.665488 -143.5 0.707395 -59.37 0.707395 -59.37 0.665629 -162.1
5.95287000 0.669195 -143.9 0.703450 -59.65 0.703450 -59.65 0.669336 -162.4
5.95287050 0.672921 -144.2 0.699440 -59.93 0.699440 -59.93 0.673063 -162.7
5.95287100 0.676666 -144.5 0.695363 -60.22 0.695363 -60.22 0.676809 -163.0
5.95287150 0.680429 -144.9 0.691220 -60.51 0.691220 -60.51 0.680573 -163.4
5.95287200 0.684210 -145.2 0.687009 -60.80 0.687009 -60.80 0.684354 -163.7
5.95287250 0.688009 -145.5 0.682728 -61.10 0.682728 -61.10 0.688154 -164.0
5.95287300 0.691824 -145.9 0.678377 -61.40 0.678377 -61.40 0.691970 -164.4
5.95287350 0.695656 -146.2 0.673955 -61.70 0.673955 -61.70 0.695803 -164.7
5.95287400 0.699504 -146.6 0.669460 -62.00 0.669460 -62.00 0.699651 -165.1
5.95287450 0.703367 -146.9 0.664892 -62.31 0.664892 -62.31 0.703515 -165.4
5.95287500 0.707245 -147.3 0.660250 -62.62 0.660250 -62.62 0.707394 -165.8
5.95287550 0.711136 -147.6 0.655531 -62.93 0.655531 -62.93 0.711286 -166.1
5.95287600 0.715041 -148.0 0.650737 -63.24 0.650737 -63.24 0.715192 -166.5
5.95287650 0.718959 -148.4 0.645864 -63.56 0.645864 -63.56 0.719110 -166.9
5.95287700 0.722888 -148.7 0.640913 -63.88 0.640913 -63.88 0.723040 -167.2
5.95287750 0.726829 -149.1 0.635882 -64.20 0.635882 -64.20 0.726981 -167.6
5.95287800 0.730779 -149.5 0.630770 -64.53 0.630770 -64.53 0.730933 -168.0
5.95287850 0.734739 -149.9 0.625577 -64.85 0.625577 -64.85 0.734893 -168.4
5.95287900 0.738707 -150.3 0.620300 -65.18 0.620300 -65.18 0.738862 -168.8
5.95287950 0.742682 -150.7 0.614939 -65.51 0.614939 -65.51 0.742838 -169.2
5.95288000 0.746664 -151.1 0.609494 -65.85 0.609494 -65.85 0.746821 -169.6
5.95288050 0.750652 -151.5 0.603963 -66.18 0.603963 -66.18 0.750809 -170.0
5.95288100 0.754643 -151.9 0.598345 -66.52 0.598345 -66.52 0.754802 -170.4
5.95288150 0.758638 -152.3 0.592639 -66.86 0.592639 -66.86 0.758797 -170.8
5.95288200 0.762635 -152.7 0.586844 -67.21 0.586844 -67.21 0.762795 -171.2
5.95288250 0.766632 -153.1 0.580960 -67.55 0.580960 -67.55 0.766793 -171.6
5.95288300 0.770629 -153.5 0.574985 -67.90 0.574985 -67.90 0.770791 -172.0
5.95288350 0.774625 -154.0 0.568919 -68.25 0.568919 -68.25 0.774787 -172.4
5.95288400 0.778617 -154.4 0.562760 -68.60 0.562760 -68.60 0.778780 -172.9
5.95288450 0.782604 -154.8 0.556509 -68.95 0.556509 -68.95 0.782769 -173.3
5.95288500 0.786586 -155.3 0.550164 -69.31 0.550164 -69.31 0.786751 -173.7
5.95288550 0.790561 -155.7 0.543725 -69.67 0.543725 -69.67 0.790726 -174.2
5.95288600 0.794526 -156.2 0.537191 -70.02 0.537191 -70.02 0.794692 -174.6
5.95288650 0.798481 -156.6 0.530561 -70.38 0.530561 -70.38 0.798648 -175.1
5.95288700 0.802424 -157.1 0.523835 -70.74 0.523835 -70.74 0.802592 -175.5
5.95288750 0.806353 -157.5 0.517012 -71.10 0.517012 -71.10 0.806521 -176.0
5.95288800 0.810266 -158.0 0.510092 -71.46 0.510092 -71.46 0.810435 -176.5
5.95288850 0.814162 -158.5 0.503074 -71.83 0.503074 -71.83 0.814332 -176.9
5.95288900 0.818039 -159.0 0.495959 -72.19 0.495959 -72.19 0.818210 -177.4
5.95288950 0.821895 -159.4 0.488745 -72.55 0.488745 -72.55 0.822067 -177.9
5.95289000 0.825728 -159.9 0.481433 -72.91 0.481433 -72.91 0.825901 -178.4
5.95289050 0.829537 -160.4 0.474023 -73.27 0.474023 -73.27 0.829710 -178.8
5.95289100 0.833319 -160.9 0.466514 -73.64 0.466514 -73.64 0.833493 -179.3
5.95289150 0.837072 -161.4 0.458906 -74.00 0.458906 -74.00 0.837247 -179.8
5.95289200 0.840794 -161.9 0.451201 -74.35 0.451201 -74.35 0.840970 179.67
5.95289250 0.844483 -162.4 0.443397 -74.71 0.443397 -74.71 0.844660 179.16
5.95289300 0.848138 -162.9 0.435495 -75.06 0.435495 -75.06 0.848315 178.66
5.95289350 0.851755 -163.4 0.427496 -75.41 0.427496 -75.41 0.851933 178.14