! Sonnet Data File
! From: em Version : 14.52
! From Project: TR_3
! Data is De-embedded 
! Data File Written: 01/09/2019 00:22:44
!< HDATE 01/08/2019 00:53:12
!< MDATE 01/08/2019 23:20:17
# GHZ S MA R 50.00000
5.70000000 0.010850 74.065 0.999941 -16.44 0.999941 -16.44 0.010850 73.066
!< P1 F=5.7 Eeff=(5.67073457 -5.1701e-6) Z0=(51.6851264 2.35637e-5) R=0.01127159 C=0.00226057 
!< P2 F=5.7 Eeff=(5.6707737 -5.1701e-6) Z0=(53.1170083 2.42156e-5) R=0.00956353 C=0.00266197 
5.70250000 0.010854 74.057 0.999941 -16.44 0.999941 -16.44 0.010854 73.059
5.70500000 0.010858 74.049 0.999941 -16.45 0.999941 -16.45 0.010858 73.052
5.70750000 0.010862 74.042 0.999941 -16.46 0.999941 -16.46 0.010862 73.045
5.71000000 0.010865 74.034 0.999941 -16.46 0.999941 -16.46 0.010865 73.038
5.71250000 0.010869 74.026 0.999941 -16.47 0.999941 -16.47 0.010869 73.031
5.71500000 0.010873 74.019 0.999941 -16.48 0.999941 -16.48 0.010873 73.025
5.71750000 0.010877 74.011 0.999941 -16.49 0.999941 -16.49 0.010877 73.018
5.72000000 0.010881 74.003 0.999941 -16.49 0.999941 -16.49 0.010881 73.011
5.72250000 0.010884 73.995 0.999941 -16.50 0.999941 -16.50 0.010884 73.004
5.72500000 0.010888 73.988 0.999941 -16.51 0.999941 -16.51 0.010888 72.997
5.72750000 0.010892 73.980 0.999941 -16.52 0.999941 -16.52 0.010892 72.991
5.73000000 0.010895 73.972 0.999941 -16.52 0.999941 -16.52 0.010895 72.984
5.73250000 0.010899 73.964 0.999940 -16.53 0.999940 -16.53 0.010899 72.977
5.73500000 0.010903 73.957 0.999940 -16.54 0.999940 -16.54 0.010903 72.970
5.73750000 0.010906 73.949 0.999940 -16.54 0.999940 -16.54 0.010906 72.964
5.74000000 0.010910 73.941 0.999940 -16.55 0.999940 -16.55 0.010910 72.957
5.74250000 0.010914 73.933 0.999940 -16.56 0.999940 -16.56 0.010914 72.950
5.74500000 0.010917 73.925 0.999940 -16.57 0.999940 -16.57 0.010917 72.944
5.74750000 0.010921 73.917 0.999940 -16.57 0.999940 -16.57 0.010921 72.937
5.75000000 0.010924 73.910 0.999940 -16.58 0.999940 -16.58 0.010924 72.930
5.75250000 0.010928 73.902 0.999940 -16.59 0.999940 -16.59 0.010928 72.924
5.75500000 0.010931 73.894 0.999940 -16.60 0.999940 -16.60 0.010931 72.917
5.75750000 0.010935 73.886 0.999940 -16.60 0.999940 -16.60 0.010935 72.910
5.76000000 0.010938 73.878 0.999940 -16.61 0.999940 -16.61 0.010938 72.904
5.76250000 0.010942 73.870 0.999940 -16.62 0.999940 -16.62 0.010942 72.897
5.76500000 0.010945 73.862 0.999940 -16.62 0.999940 -16.62 0.010945 72.891
5.76750000 0.010949 73.854 0.999940 -16.63 0.999940 -16.63 0.010949 72.884
5.77000000 0.010952 73.846 0.999940 -16.64 0.999940 -16.64 0.010952 72.878
5.77250000 0.010956 73.838 0.999940 -16.65 0.999940 -16.65 0.010956 72.871
5.77500000 0.010959 73.830 0.999940 -16.65 0.999940 -16.65 0.010959 72.865
5.77750000 0.010962 73.822 0.999940 -16.66 0.999940 -16.66 0.010962 72.858
5.78000000 0.010966 73.814 0.999940 -16.67 0.999940 -16.67 0.010966 72.852
5.78250000 0.010969 73.806 0.999940 -16.68 0.999940 -16.68 0.010969 72.845
5.78500000 0.010972 73.797 0.999940 -16.68 0.999940 -16.68 0.010972 72.839
5.78750000 0.010975 73.789 0.999940 -16.69 0.999940 -16.69 0.010975 72.832
5.79000000 0.010979 73.781 0.999940 -16.70 0.999940 -16.70 0.010979 72.826
5.79250000 0.010982 73.773 0.999940 -16.70 0.999940 -16.70 0.010982 72.819
5.79500000 0.010985 73.765 0.999940 -16.71 0.999940 -16.71 0.010985 72.813
5.79750000 0.010988 73.756 0.999939 -16.72 0.999939 -16.72 0.010988 72.807
5.80000000 0.010991 73.748 0.999939 -16.73 0.999939 -16.73 0.010991 72.800
5.80250000 0.010994 73.740 0.999939 -16.73 0.999939 -16.73 0.010994 72.794
5.80500000 0.010997 73.732 0.999939 -16.74 0.999939 -16.74 0.010997 72.788
5.80750000 0.011000 73.723 0.999939 -16.75 0.999939 -16.75 0.011000 72.782
5.81000000 0.011003 73.715 0.999939 -16.76 0.999939 -16.76 0.011003 72.775
5.81250000 0.011006 73.706 0.999939 -16.76 0.999939 -16.76 0.011006 72.769
5.81500000 0.011009 73.698 0.999939 -16.77 0.999939 -16.77 0.011009 72.763
5.81750000 0.011012 73.689 0.999939 -16.78 0.999939 -16.78 0.011012 72.757
5.82000000 0.011015 73.681 0.999939 -16.78 0.999939 -16.78 0.011015 72.751
5.82250000 0.011018 73.672 0.999939 -16.79 0.999939 -16.79 0.011018 72.745
5.82500000 0.011021 73.664 0.999939 -16.80 0.999939 -16.80 0.011021 72.739
5.82750000 0.011023 73.655 0.999939 -16.81 0.999939 -16.81 0.011023 72.733
5.83000000 0.011026 73.647 0.999939 -16.81 0.999939 -16.81 0.011026 72.727
5.83250000 0.011029 73.638 0.999939 -16.82 0.999939 -16.82 0.011029 72.721
5.83500000 0.011031 73.629 0.999939 -16.83 0.999939 -16.83 0.011031 72.715
5.83750000 0.011034 73.621 0.999939 -16.84 0.999939 -16.84 0.011034 72.709
5.84000000 0.011036 73.612 0.999939 -16.84 0.999939 -16.84 0.011036 72.703
5.84250000 0.011039 73.603 0.999939 -16.85 0.999939 -16.85 0.011039 72.697
5.84500000 0.011041 73.594 0.999939 -16.86 0.999939 -16.86 0.011041 72.691
5.84750000 0.011044 73.585 0.999939 -16.87 0.999939 -16.87 0.011044 72.685
5.85000000 0.011046 73.576 0.999939 -16.87 0.999939 -16.87 0.011046 72.680
5.85250000 0.011048 73.567 0.999939 -16.88 0.999939 -16.88 0.011048 72.674
5.85500000 0.011050 73.558 0.999939 -16.89 0.999939 -16.89 0.011050 72.668
5.85750000 0.011052 73.549 0.999939 -16.89 0.999939 -16.89 0.011052 72.663
5.86000000 0.011054 73.540 0.999939 -16.90 0.999939 -16.90 0.011054 72.657
5.86250000 0.011056 73.531 0.999939 -16.91 0.999939 -16.91 0.011056 72.652
5.86500000 0.011058 73.521 0.999939 -16.92 0.999939 -16.92 0.011058 72.646
5.86750000 0.011060 73.512 0.999939 -16.92 0.999939 -16.92 0.011060 72.641
5.87000000 0.011062 73.502 0.999939 -16.93 0.999939 -16.93 0.011062 72.636
5.87250000 0.011064 73.493 0.999939 -16.94 0.999939 -16.94 0.011064 72.630
5.87500000 0.011065 73.483 0.999939 -16.95 0.999939 -16.95 0.011065 72.625
5.87750000 0.011067 73.474 0.999939 -16.95 0.999939 -16.95 0.011067 72.620
5.88000000 0.011068 73.464 0.999939 -16.96 0.999939 -16.96 0.011068 72.615
5.88250000 0.011070 73.454 0.999939 -16.97 0.999939 -16.97 0.011070 72.610
5.88500000 0.011071 73.445 0.999939 -16.98 0.999939 -16.98 0.011071 72.605
5.88750000 0.011072 73.435 0.999939 -16.98 0.999939 -16.98 0.011072 72.600
5.89000000 0.011073 73.425 0.999939 -16.99 0.999939 -16.99 0.011073 72.595
5.89250000 0.011075 73.415 0.999939 -17.00 0.999939 -17.00 0.011075 72.591
5.89500000 0.011075 73.404 0.999939 -17.01 0.999939 -17.01 0.011075 72.586
5.89750000 0.011076 73.394 0.999939 -17.01 0.999939 -17.01 0.011076 72.581
5.90000000 0.011077 73.384 0.999939 -17.02 0.999939 -17.02 0.011077 72.577
5.90250000 0.011077 73.373 0.999939 -17.03 0.999939 -17.03 0.011077 72.572
5.90500000 0.011078 73.362 0.999939 -17.04 0.999939 -17.04 0.011078 72.568
5.90750000 0.011078 73.352 0.999938 -17.04 0.999938 -17.04 0.011078 72.564
5.91000000 0.011078 73.341 0.999938 -17.05 0.999938 -17.05 0.011078 72.560
5.91250000 0.011078 73.330 0.999938 -17.06 0.999938 -17.06 0.011078 72.556
5.91500000 0.011078 73.319 0.999938 -17.07 0.999938 -17.07 0.011078 72.552
5.91750000 0.011078 73.308 0.999939 -17.07 0.999939 -17.07 0.011078 72.548
5.92000000 0.011077 73.296 0.999939 -17.08 0.999939 -17.08 0.011077 72.545
5.92250000 0.011077 73.285 0.999939 -17.09 0.999939 -17.09 0.011077 72.541
5.92500000 0.011076 73.273 0.999939 -17.10 0.999939 -17.10 0.011076 72.538
5.92750000 0.011075 73.261 0.999939 -17.10 0.999939 -17.10 0.011075 72.535
5.93000000 0.011074 73.249 0.999939 -17.11 0.999939 -17.11 0.011074 72.532
5.93250000 0.011072 73.236 0.999939 -17.12 0.999939 -17.12 0.011072 72.529
5.93500000 0.011070 73.224 0.999939 -17.13 0.999939 -17.13 0.011070 72.526
5.93750000 0.011069 73.211 0.999939 -17.13 0.999939 -17.13 0.011069 72.524
5.94000000 0.011066 73.198 0.999939 -17.14 0.999939 -17.14 0.011066 72.522
5.94250000 0.011064 73.185 0.999939 -17.15 0.999939 -17.15 0.011064 72.520
5.94500000 0.011061 73.171 0.999939 -17.16 0.999939 -17.16 0.011061 72.518
5.94750000 0.011058 73.158 0.999939 -17.16 0.999939 -17.16 0.011058 72.516
5.95000000 0.011055 73.144 0.999939 -17.17 0.999939 -17.17 0.011055 72.515
5.95250000 0.011051 73.129 0.999939 -17.18 0.999939 -17.18 0.011051 72.514
5.95500000 0.011047 73.114 0.999939 -17.19 0.999939 -17.19 0.011047 72.514
5.95750000 0.011042 73.099 0.999939 -17.19 0.999939 -17.19 0.011042 72.513
5.96000000 0.011037 73.084 0.999939 -17.20 0.999939 -17.20 0.011037 72.513
5.96250000 0.011032 73.068 0.999939 -17.21 0.999939 -17.21 0.011032 72.514
5.96500000 0.011026 73.051 0.999939 -17.22 0.999939 -17.22 0.011026 72.514
5.96750000 0.011019 73.035 0.999939 -17.23 0.999939 -17.23 0.011019 72.516
5.97000000 0.011012 73.017 0.999939 -17.23 0.999939 -17.23 0.011012 72.517
5.97250000 0.011004 72.999 0.999939 -17.24 0.999939 -17.24 0.011004 72.519
5.97500000 0.010996 72.981 0.999939 -17.25 0.999939 -17.25 0.010996 72.522
5.97750000 0.010987 72.961 0.999939 -17.26 0.999939 -17.26 0.010987 72.525
5.98000000 0.010977 72.941 0.999940 -17.27 0.999940 -17.27 0.010977 72.529
5.98250000 0.010966 72.920 0.999940 -17.27 0.999940 -17.27 0.010966 72.534
5.98500000 0.010955 72.899 0.999940 -17.28 0.999940 -17.28 0.010955 72.539
5.98750000 0.010942 72.876 0.999940 -17.29 0.999940 -17.29 0.010942 72.546
5.99000000 0.010928 72.852 0.999940 -17.30 0.999940 -17.30 0.010928 72.553
5.99250000 0.010913 72.827 0.999940 -17.31 0.999940 -17.31 0.010913 72.561
5.99500000 0.010897 72.801 0.999940 -17.32 0.999940 -17.32 0.010897 72.571
5.99750000 0.010879 72.773 0.999941 -17.32 0.999941 -17.32 0.010879 72.582
6.00000000 0.010859 72.743 0.999941 -17.33 0.999941 -17.33 0.010859 72.594
6.00250000 0.010838 72.712 0.999941 -17.34 0.999941 -17.34 0.010838 72.608
6.00500000 0.010814 72.679 0.999941 -17.35 0.999941 -17.35 0.010814 72.624
6.00750000 0.010788 72.643 0.999942 -17.36 0.999942 -17.36 0.010788 72.641
6.01000000 0.010759 72.604 0.999942 -17.37 0.999942 -17.37 0.010759 72.662
6.01250000 0.010727 72.563 0.999942 -17.38 0.999942 -17.38 0.010727 72.685
6.01500000 0.010692 72.518 0.999943 -17.39 0.999943 -17.39 0.010692 72.711
6.01750000 0.010653 72.468 0.999943 -17.40 0.999943 -17.40 0.010653 72.741
6.02000000 0.010609 72.414 0.999944 -17.41 0.999944 -17.41 0.010609 72.775
6.02250000 0.010559 72.354 0.999944 -17.42 0.999944 -17.42 0.010559 72.814
6.02500000 0.010503 72.287 0.999945 -17.43 0.999945 -17.43 0.010503 72.860
6.02750000 0.010439 72.211 0.999945 -17.44 0.999945 -17.44 0.010440 72.913
6.03000000 0.010367 72.126 0.999946 -17.45 0.999946 -17.45 0.010367 72.976
6.03250000 0.010282 72.027 0.999947 -17.46 0.999947 -17.46 0.010282 73.050
6.03500000 0.010184 71.912 0.999948 -17.48 0.999948 -17.48 0.010184 73.139
6.03750000 0.010069 71.776 0.999949 -17.49 0.999949 -17.49 0.010069 73.246
6.04000000 0.009931 71.613 0.999950 -17.51 0.999950 -17.51 0.009931 73.379
6.04250000 0.009764 71.411 0.999952 -17.52 0.999952 -17.52 0.009764 73.547
6.04500000 0.009558 71.156 0.999954 -17.54 0.999954 -17.54 0.009558 73.763
6.04750000 0.009298 70.823 0.999956 -17.57 0.999956 -17.57 0.009298 74.053
6.05000000 0.008960 70.365 0.999959 -17.59 0.999959 -17.59 0.008960 74.458
6.05250000 0.008503 69.695 0.999963 -17.63 0.999963 -17.63 0.008504 75.061
6.05500000 0.007855 68.619 0.999968 -17.67 0.999968 -17.67 0.007855 76.051
6.05750000 0.006864 66.596 0.999975 -17.74 0.999975 -17.74 0.006865 77.953
6.06000000 0.005180 61.356 0.999984 -17.85 0.999984 -17.85 0.005182 83.009
6.06250000 0.002090 22.154 0.999991 -18.07 0.999991 -18.07 0.002102 121.89
!< P1 F=6.0625 Eeff=(5.67071964 -5.1706e-6) Z0=(51.6850348 2.35637e-5) R=0.01058823 C=0.00226057 
!< P2 F=6.0625 Eeff=(5.67076055 -5.1706e-6) Z0=(53.1169118 2.42156e-5) R=0.0090039 C=0.00266197 
6.06255000 0.002031 19.225 0.999991 -18.08 0.999991 -18.08 0.002044 124.80
6.06260000 0.001977 16.055 0.999991 -18.09 0.999991 -18.09 0.001990 127.94
6.06265000 0.001928 12.636 0.999991 -18.09 0.999991 -18.09 0.001941 131.33
6.06270000 0.001885 8.9637 0.999991 -18.10 0.999991 -18.10 0.001899 134.97
6.06275000 0.001849 5.0426 0.999991 -18.11 0.999991 -18.11 0.001864 138.85
6.06280000 0.001822 0.8863 0.999991 -18.12 0.999991 -18.12 0.001837 142.96
6.06285000 0.001804 -3.480 0.999990 -18.12 0.999990 -18.12 0.001820 147.28
6.06290000 0.001797 -8.018 0.999990 -18.13 0.999990 -18.13 0.001813 151.76
6.06295000 0.001801 -12.68 0.999990 -18.14 0.999990 -18.14 0.001818 156.36
6.06300000 0.001818 -17.41 0.999990 -18.15 0.999990 -18.15 0.001835 161.03
6.06305000 0.001847 -22.14 0.999990 -18.16 0.999990 -18.16 0.001864 165.69
6.06310000 0.001890 -26.80 0.999989 -18.17 0.999989 -18.17 0.001907 170.30
6.06315000 0.001947 -31.35 0.999989 -18.18 0.999989 -18.18 0.001964 174.79
6.06320000 0.002017 -35.73 0.999988 -18.19 0.999988 -18.19 0.002034 179.12
6.06325000 0.002100 -39.90 0.999988 -18.20 0.999988 -18.20 0.002117 -176.8
6.06330000 0.002196 -43.84 0.999988 -18.21 0.999988 -18.21 0.002213 -172.9
6.06335000 0.002305 -47.53 0.999987 -18.22 0.999987 -18.22 0.002321 -169.2
6.06340000 0.002426 -50.97 0.999986 -18.23 0.999986 -18.23 0.002441 -165.8
6.06345000 0.002558 -54.16 0.999986 -18.24 0.999986 -18.24 0.002574 -162.7
6.06350000 0.002702 -57.11 0.999985 -18.25 0.999985 -18.25 0.002717 -159.7
6.06355000 0.002857 -59.83 0.999984 -18.26 0.999984 -18.26 0.002872 -157.1
6.06360000 0.003023 -62.34 0.999984 -18.28 0.999984 -18.28 0.003037 -154.6
6.06365000 0.003199 -64.65 0.999983 -18.29 0.999983 -18.29 0.003212 -152.3
6.06370000 0.003385 -66.78 0.999982 -18.30 0.999982 -18.30 0.003399 -150.2
6.06375000 0.003582 -68.74 0.999981 -18.31 0.999981 -18.31 0.003595 -148.2
6.06380000 0.003789 -70.56 0.999979 -18.33 0.999979 -18.33 0.003801 -146.5
6.06385000 0.004006 -72.23 0.999978 -18.34 0.999978 -18.34 0.004018 -144.8
6.06390000 0.004234 -73.78 0.999977 -18.36 0.999977 -18.36 0.004246 -143.3
6.06395000 0.004472 -75.22 0.999975 -18.37 0.999975 -18.37 0.004484 -141.9
6.06400000 0.004721 -76.56 0.999973 -18.39 0.999973 -18.39 0.004733 -140.6
6.06405000 0.004982 -77.80 0.999972 -18.40 0.999972 -18.40 0.004993 -139.3
6.06410000 0.005254 -78.96 0.999970 -18.42 0.999970 -18.42 0.005265 -138.2
6.06415000 0.005537 -80.05 0.999968 -18.44 0.999968 -18.44 0.005549 -137.2
6.06420000 0.005834 -81.06 0.999965 -18.46 0.999965 -18.46 0.005845 -136.2
6.06425000 0.006143 -82.01 0.999963 -18.47 0.999963 -18.47 0.006154 -135.3
6.06430000 0.006466 -82.91 0.999960 -18.49 0.999960 -18.49 0.006476 -134.4
6.06435000 0.006803 -83.75 0.999957 -18.51 0.999957 -18.51 0.006813 -133.6
6.06440000 0.007155 -84.54 0.999954 -18.54 0.999954 -18.54 0.007165 -132.8
6.06445000 0.007522 -85.29 0.999950 -18.56 0.999950 -18.56 0.007533 -132.1
6.06450000 0.007906 -86.00 0.999946 -18.58 0.999946 -18.58 0.007917 -131.5
6.06455000 0.008308 -86.67 0.999942 -18.60 0.999942 -18.60 0.008318 -130.9
6.06460000 0.008729 -87.31 0.999937 -18.63 0.999937 -18.63 0.008739 -130.3
6.06465000 0.009169 -87.91 0.999932 -18.65 0.999932 -18.65 0.009179 -129.7
6.06470000 0.009630 -88.49 0.999927 -18.68 0.999927 -18.68 0.009640 -129.2
6.06475000 0.010114 -89.04 0.999921 -18.71 0.999921 -18.71 0.010124 -128.7
6.06480000 0.010621 -89.56 0.999914 -18.74 0.999914 -18.74 0.010631 -128.2
6.06485000 0.011155 -90.07 0.999907 -18.77 0.999907 -18.77 0.011165 -127.8
6.06490000 0.011716 -90.55 0.999899 -18.80 0.999899 -18.80 0.011726 -127.4
6.06495000 0.012307 -91.01 0.999890 -18.84 0.999890 -18.84 0.012317 -127.0
6.06500000 0.012930 -91.46 0.999881 -18.87 0.999881 -18.87 0.012940 -126.6
6.06505000 0.013588 -91.89 0.999870 -18.91 0.999870 -18.91 0.013598 -126.3
6.06510000 0.014283 -92.30 0.999858 -18.95 0.999858 -18.95 0.014293 -125.9
6.06515000 0.015019 -92.70 0.999845 -19.00 0.999845 -19.00 0.015029 -125.6
6.06520000 0.015799 -93.09 0.999830 -19.04 0.999830 -19.04 0.015809 -125.3
6.06525000 0.016628 -93.47 0.999814 -19.09 0.999814 -19.09 0.016638 -125.0
6.06530000 0.017509 -93.84 0.999796 -19.14 0.999796 -19.14 0.017520 -124.8
6.06535000 0.018449 -94.20 0.999776 -19.19 0.999776 -19.19 0.018459 -124.5
6.06540000 0.019452 -94.55 0.999753 -19.25 0.999753 -19.25 0.019463 -124.3
6.06545000 0.020526 -94.89 0.999727 -19.31 0.999727 -19.31 0.020537 -124.1
6.06550000 0.021678 -95.23 0.999699 -19.38 0.999699 -19.38 0.021689 -123.9
6.06555000 0.022917 -95.56 0.999666 -19.45 0.999666 -19.45 0.022928 -123.7
6.06560000 0.024253 -95.89 0.999629 -19.53 0.999629 -19.53 0.024264 -123.5
6.06565000 0.025697 -96.22 0.999586 -19.61 0.999586 -19.61 0.025709 -123.4
6.06570000 0.027264 -96.55 0.999537 -19.70 0.999537 -19.70 0.027276 -123.2
6.06575000 0.028970 -96.87 0.999481 -19.80 0.999481 -19.80 0.028983 -123.1
6.06580000 0.030834 -97.20 0.999416 -19.91 0.999416 -19.91 0.030847 -123.0
6.06585000 0.032879 -97.53 0.999340 -20.02 0.999340 -20.02 0.032892 -122.9
6.06590000 0.035131 -97.87 0.999251 -20.15 0.999251 -20.15 0.035145 -122.9
6.06595000 0.037626 -98.22 0.999146 -20.30 0.999146 -20.30 0.037640 -122.8
6.06600000 0.040402 -98.58 0.999021 -20.46 0.999021 -20.46 0.040417 -122.8
6.06605000 0.043512 -98.95 0.998870 -20.64 0.998870 -20.64 0.043528 -122.8
6.06610000 0.047019 -99.34 0.998687 -20.84 0.998687 -20.84 0.047035 -122.8
6.06615000 0.051003 -99.75 0.998462 -21.07 0.998462 -21.07 0.051020 -122.9
6.06620000 0.055569 -100.2 0.998183 -21.33 0.998183 -21.33 0.055587 -123.0
6.06625000 0.060854 -100.7 0.997830 -21.63 0.997830 -21.63 0.060872 -123.2
6.06630000 0.067040 -101.2 0.997377 -21.99 0.997377 -21.99 0.067060 -123.4
6.06635000 0.074380 -101.8 0.996783 -22.41 0.996783 -22.41 0.074401 -123.7
6.06640000 0.083226 -102.5 0.995987 -22.92 0.995987 -22.92 0.083250 -124.1
6.06645000 0.094093 -103.3 0.994887 -23.54 0.994887 -23.54 0.094119 -124.6
6.06650000 0.107755 -104.3 0.993313 -24.33 0.993313 -24.33 0.107783 -125.3
6.06655000 0.125435 -105.5 0.990960 -25.35 0.990960 -25.35 0.125467 -126.2
6.06660000 0.149180 -107.1 0.987233 -26.72 0.987233 -26.72 0.149218 -127.6
6.06665000 0.182674 -109.3 0.980857 -28.67 0.980857 -28.67 0.182719 -129.5
6.06670000 0.232720 -112.5 0.968839 -31.60 0.968839 -31.60 0.232775 -132.5
!< P1 F=6.0667 Eeff=(5.67071959 -5.17e-6) Z0=(51.6850342 2.35637e-5) R=0.01058968 C=0.00226057 
!< P2 F=6.0667 Eeff=(5.67076048 -5.17e-6) Z0=(53.116911 2.42156e-5) R=0.00898832 C=0.00266197 
6.06670200 0.235263 -112.7 0.968147 -31.75 0.968147 -31.75 0.235319 -132.7
6.06670400 0.237858 -112.9 0.967433 -31.90 0.967433 -31.90 0.237915 -132.8
6.06670600 0.240506 -113.0 0.966695 -32.06 0.966695 -32.06 0.240564 -133.0
6.06670800 0.243209 -113.2 0.965933 -32.22 0.965933 -32.22 0.243267 -133.1
6.06671000 0.245968 -113.4 0.965146 -32.38 0.965146 -32.38 0.246027 -133.3
6.06671200 0.248785 -113.6 0.964333 -32.55 0.964333 -32.55 0.248845 -133.5
6.06671400 0.251662 -113.8 0.963492 -32.72 0.963492 -32.72 0.251722 -133.7
6.06671600 0.254600 -113.9 0.962623 -32.89 0.962623 -32.89 0.254661 -133.8
6.06671800 0.257602 -114.1 0.961723 -33.07 0.961723 -33.07 0.257663 -134.0
6.06672000 0.260669 -114.3 0.960793 -33.25 0.960793 -33.25 0.260731 -134.2
6.06672200 0.263804 -114.5 0.959829 -33.44 0.959829 -33.44 0.263867 -134.4
6.06672400 0.267008 -114.8 0.958831 -33.63 0.958831 -33.63 0.267071 -134.6
6.06672600 0.270284 -115.0 0.957798 -33.83 0.957798 -33.83 0.270348 -134.8
6.06672800 0.273635 -115.2 0.956727 -34.02 0.956727 -34.02 0.273699 -135.0
6.06673000 0.277061 -115.4 0.955616 -34.23 0.955616 -34.23 0.277127 -135.2
6.06673200 0.280567 -115.6 0.954465 -34.44 0.954465 -34.44 0.280633 -135.4
6.06673400 0.284154 -115.9 0.953270 -34.65 0.953270 -34.65 0.284221 -135.7
6.06673600 0.287826 -116.1 0.952030 -34.87 0.952030 -34.87 0.287893 -135.9
6.06673800 0.291584 -116.3 0.950742 -35.10 0.950742 -35.10 0.291653 -136.1
6.06674000 0.295433 -116.6 0.949405 -35.33 0.949405 -35.33 0.295502 -136.4
6.06674200 0.299375 -116.9 0.948015 -35.56 0.948015 -35.56 0.299445 -136.6
6.06674400 0.303413 -117.1 0.946570 -35.81 0.946570 -35.81 0.303484 -136.9
6.06674600 0.307550 -117.4 0.945067 -36.05 0.945067 -36.05 0.307622 -137.1
6.06674800 0.311790 -117.7 0.943503 -36.31 0.943503 -36.31 0.311863 -137.4
6.06675000 0.316137 -118.0 0.941875 -36.57 0.941875 -36.57 0.316211 -137.7
6.06675200 0.320594 -118.2 0.940179 -36.84 0.940179 -36.84 0.320669 -138.0
6.06675400 0.325165 -118.5 0.938412 -37.12 0.938412 -37.12 0.325241 -138.2
6.06675600 0.329855 -118.9 0.936570 -37.40 0.936570 -37.40 0.329932 -138.5
6.06675800 0.334666 -119.2 0.934649 -37.69 0.934649 -37.69 0.334744 -138.9
6.06676000 0.339605 -119.5 0.932645 -37.99 0.932645 -37.99 0.339684 -139.2
6.06676200 0.344675 -119.8 0.930552 -38.30 0.930552 -38.30 0.344754 -139.5
6.06676400 0.349880 -120.2 0.928365 -38.62 0.928365 -38.62 0.349961 -139.8
6.06676600 0.355227 -120.5 0.926081 -38.95 0.926081 -38.95 0.355309 -140.2
6.06676800 0.360719 -120.9 0.923691 -39.29 0.923691 -39.29 0.360803 -140.5
6.06677000 0.366363 -121.3 0.921192 -39.63 0.921192 -39.63 0.366448 -140.9
6.06677200 0.372164 -121.7 0.918575 -39.99 0.918575 -39.99 0.372250 -141.3
6.06677400 0.378128 -122.1 0.915834 -40.36 0.915834 -40.36 0.378215 -141.7
6.06677600 0.384260 -122.5 0.912962 -40.74 0.912962 -40.74 0.384349 -142.1
6.06677800 0.390567 -122.9 0.909950 -41.13 0.909950 -41.13 0.390657 -142.5
6.06678000 0.397056 -123.3 0.906790 -41.53 0.906790 -41.53 0.397147 -142.9
6.06678200 0.403732 -123.8 0.903472 -41.95 0.903472 -41.95 0.403824 -143.4
6.06678400 0.410603 -124.3 0.899987 -42.38 0.899987 -42.38 0.410697 -143.8
6.06678600 0.417676 -124.7 0.896324 -42.82 0.896324 -42.82 0.417771 -144.3
6.06678800 0.424957 -125.2 0.892472 -43.28 0.892472 -43.28 0.425055 -144.8
6.06679000 0.432456 -125.8 0.888417 -43.76 0.888417 -43.76 0.432555 -145.3
6.06679200 0.440179 -126.3 0.884148 -44.25 0.884148 -44.25 0.440279 -145.8
6.06679400 0.448134 -126.8 0.879649 -44.76 0.879649 -44.76 0.448236 -146.4
6.06679600 0.456329 -127.4 0.874906 -45.28 0.874906 -45.28 0.456433 -146.9
6.06679800 0.464772 -128.0 0.869902 -45.83 0.869902 -45.83 0.464878 -147.5
6.06680000 0.473473 -128.6 0.864618 -46.39 0.864618 -46.39 0.473580 -148.1
6.06680200 0.482438 -129.3 0.859037 -46.97 0.859037 -46.97 0.482547 -148.7
6.06680400 0.491676 -129.9 0.853138 -47.58 0.853138 -47.58 0.491787 -149.4
6.06680600 0.501195 -130.6 0.846898 -48.21 0.846898 -48.21 0.501309 -150.1
6.06680800 0.511004 -131.3 0.840294 -48.86 0.840294 -48.86 0.511119 -150.8
6.06681000 0.521109 -132.1 0.833301 -49.53 0.833301 -49.53 0.521227 -151.5
6.06681200 0.531519 -132.8 0.825890 -50.23 0.825890 -50.23 0.531640 -152.2
6.06681400 0.542241 -133.6 0.818032 -50.95 0.818032 -50.95 0.542363 -153.0
6.06681600 0.553280 -134.4 0.809697 -51.71 0.809697 -51.71 0.553405 -153.9
6.06681800 0.564642 -135.3 0.800850 -52.49 0.800850 -52.49 0.564769 -154.7
6.06682000 0.576331 -136.2 0.791455 -53.30 0.791455 -53.30 0.576460 -155.6
6.06682200 0.588350 -137.1 0.781473 -54.14 0.781473 -54.14 0.588482 -156.5
6.06682400 0.600700 -138.1 0.770864 -55.02 0.770864 -55.02 0.600835 -157.5
6.06682600 0.613381 -139.1 0.759583 -55.93 0.759583 -55.93 0.613518 -158.5
6.06682800 0.626389 -140.2 0.747585 -56.87 0.747585 -56.87 0.626529 -159.5
6.06683000 0.639718 -141.3 0.734821 -57.85 0.734821 -57.85 0.639861 -160.6
6.06683200 0.653360 -142.4 0.721240 -58.87 0.721240 -58.87 0.653506 -161.7
6.06683400 0.667301 -143.6 0.706788 -59.92 0.706788 -59.92 0.667450 -162.9
6.06683600 0.681523 -144.8 0.691410 -61.02 0.691410 -61.02 0.681675 -164.2
6.06683800 0.696005 -146.1 0.675050 -62.15 0.675050 -62.15 0.696160 -165.4
6.06684000 0.710717 -147.5 0.657648 -63.32 0.657648 -63.32 0.710875 -166.8
6.06684200 0.725625 -148.9 0.639148 -64.53 0.639148 -64.53 0.725787 -168.2
6.06684400 0.740687 -150.4 0.619490 -65.77 0.619490 -65.77 0.740852 -169.6
6.06684600 0.755854 -151.9 0.598619 -67.05 0.598619 -67.05 0.756022 -171.1
6.06684800 0.771066 -153.5 0.576483 -68.37 0.576483 -68.37 0.771237 -172.7
6.06685000 0.786257 -155.1 0.553031 -69.71 0.553031 -69.71 0.786431 -174.3
6.06685200 0.801350 -156.8 0.528221 -71.08 0.528221 -71.08 0.801527 -176.0
6.06685400 0.816258 -158.6 0.502021 -72.47 0.502021 -72.47 0.816438 -177.8
6.06685600 0.830886 -160.4 0.474408 -73.86 0.474408 -73.86 0.831069 -179.6
6.06685800 0.845128 -162.3 0.445373 -75.24 0.445373 -75.24 0.845315 178.50
6.06686000 0.861375 -164.6 0.409053 -76.83 0.409053 -76.83 0.861565 176.19
!< P1 F=6.06686 Eeff=(5.67071973 -5.1708e-6) Z0=(51.685035 2.35637e-5) R=0.01058377 C=0.00226057 
!< P2 F=6.06686 Eeff=(5.67076039 -5.1708e-6) Z0=(53.1169107 2.42156e-5) R=0.00899395 C=0.00266197 
6.06686020 0.862694 -164.8 0.405934 -76.96 0.405934 -76.96 0.862884 175.99
6.06686040 0.864004 -165.0 0.402806 -77.09 0.402806 -77.09 0.864194 175.79
6.06686060 0.865308 -165.2 0.399665 -77.22 0.399665 -77.22 0.865498 175.59
6.06686080 0.866605 -165.4 0.396511 -77.35 0.396511 -77.35 0.866796 175.40
6.06686100 0.867895 -165.6 0.393344 -77.47 0.393344 -77.47 0.868086 175.20
6.06686120 0.869178 -165.8 0.390163 -77.60 0.390163 -77.60 0.869370 175.00
6.06686140 0.870455 -166.0 0.386969 -77.72 0.386969 -77.72 0.870647 174.80
6.06686160 0.871724 -166.2 0.383762 -77.85 0.383762 -77.85 0.871916 174.60
6.06686180 0.872986 -166.4 0.380542 -77.97 0.380542 -77.97 0.873178 174.39
6.06686200 0.874241 -166.6 0.377308 -78.09 0.377308 -78.09 0.874433 174.19
6.06686220 0.875488 -166.8 0.374062 -78.22 0.374062 -78.22 0.875681 173.99
6.06686240 0.876728 -167.0 0.370803 -78.34 0.370803 -78.34 0.876921 173.79
6.06686260 0.877959 -167.2 0.367532 -78.45 0.367532 -78.45 0.878153 173.58
6.06686280 0.879183 -167.4 0.364247 -78.57 0.364247 -78.57 0.879377 173.38
6.06686300 0.880399 -167.6 0.360950 -78.69 0.360950 -78.69 0.880593 173.17
6.06686320 0.881607 -167.8 0.357641 -78.80 0.357641 -78.80 0.881801 172.97
6.06686340 0.882807 -168.1 0.354319 -78.92 0.354319 -78.92 0.883001 172.76
6.06686360 0.883998 -168.3 0.350985 -79.03 0.350985 -79.03 0.884193 172.56
6.06686380 0.885181 -168.5 0.347638 -79.14 0.347638 -79.14 0.885376 172.35
6.06686400 0.886355 -168.7 0.344280 -79.25 0.344280 -79.25 0.886550 172.14
6.06686420 0.887521 -168.9 0.340909 -79.36 0.340909 -79.36 0.887716 171.93
6.06686440 0.888677 -169.1 0.337526 -79.46 0.337526 -79.46 0.888873 171.73
6.06686460 0.889825 -169.3 0.334132 -79.57 0.334132 -79.57 0.890021 171.52
6.06686480 0.890963 -169.5 0.330726 -79.67 0.330726 -79.67 0.891159 171.31
6.06686500 0.892093 -169.7 0.327308 -79.77 0.327308 -79.77 0.892289 171.10
6.06686520 0.893212 -169.9 0.323879 -79.87 0.323879 -79.87 0.893409 170.89
6.06686540 0.894323 -170.2 0.320438 -79.96 0.320438 -79.96 0.894520 170.68
6.06686560 0.895424 -170.4 0.316986 -80.05 0.316986 -80.05 0.895621 170.46
6.06686580 0.896515 -170.6 0.313523 -80.15 0.313523 -80.15 0.896712 170.25
6.06686600 0.897596 -170.8 0.310050 -80.23 0.310050 -80.23 0.897794 170.04
6.06686620 0.898668 -171.0 0.306565 -80.32 0.306565 -80.32 0.898865 169.83
6.06686640 0.899729 -171.2 0.303070 -80.40 0.303070 -80.40 0.899927 169.61
6.06686660 0.900780 -171.4 0.299564 -80.48 0.299564 -80.48 0.900978 169.40
6.06686680 0.901821 -171.6 0.296048 -80.56 0.296048 -80.56 0.902019 169.18
6.06686700 0.902851 -171.9 0.292522 -80.63 0.292522 -80.63 0.903049 168.97
6.06686720 0.903870 -172.1 0.288986 -80.70 0.288986 -80.70 0.904069 168.75
6.06686740 0.904879 -172.3 0.285440 -80.77 0.285440 -80.77 0.905078 168.54
6.06686760 0.905878 -172.5 0.281884 -80.84 0.281884 -80.84 0.906077 168.32
6.06686780 0.906865 -172.7 0.278319 -80.89 0.278319 -80.89 0.907064 168.10
6.06686800 0.907841 -173.0 0.274745 -80.95 0.274745 -80.95 0.908040 167.89
6.06686820 0.908806 -173.2 0.271162 -81.00 0.271162 -81.00 0.909006 167.67
6.06686840 0.909760 -173.4 0.267570 -81.05 0.267570 -81.05 0.909960 167.45
6.06686860 0.910702 -173.6 0.263969 -81.09 0.263969 -81.09 0.910902 167.23
6.06686880 0.911633 -173.8 0.260360 -81.13 0.260360 -81.13 0.911833 167.01
6.06686900 0.912552 -174.0 0.256743 -81.16 0.256743 -81.16 0.912753 166.79
6.06686920 0.913460 -174.3 0.253118 -81.19 0.253118 -81.19 0.913660 166.57
6.06686940 0.914356 -174.5 0.249486 -81.21 0.249486 -81.21 0.914556 166.35
6.06686960 0.915239 -174.7 0.245846 -81.23 0.245846 -81.23 0.915440 166.13
6.06686980 0.916111 -174.9 0.242199 -81.24 0.242199 -81.24 0.916312 165.91
6.06687000 0.916970 -175.2 0.238546 -81.24 0.238546 -81.24 0.917172 165.69
6.06687020 0.917818 -175.4 0.234886 -81.24 0.234886 -81.24 0.918019 165.47
6.06687040 0.918652 -175.6 0.231220 -81.23 0.231220 -81.23 0.918854 165.25
6.06687060 0.919475 -175.8 0.227548 -81.21 0.227548 -81.21 0.919676 165.02
6.06687080 0.920284 -176.0 0.223870 -81.18 0.223870 -81.18 0.920486 164.80
6.06687100 0.921081 -176.3 0.220188 -81.15 0.220188 -81.15 0.921283 164.58
6.06687120 0.921866 -176.5 0.216501 -81.11 0.216501 -81.11 0.922068 164.35
6.06687140 0.922637 -176.7 0.212809 -81.05 0.212809 -81.05 0.922839 164.13
6.06687160 0.923395 -176.9 0.209114 -80.99 0.209114 -80.99 0.923597 163.90
6.06687180 0.924140 -177.2 0.205415 -80.92 0.205415 -80.92 0.924343 163.68
6.06687200 0.924872 -177.4 0.201714 -80.83 0.201714 -80.83 0.925075 163.45
6.06687220 0.925591 -177.6 0.198009 -80.74 0.198009 -80.74 0.925794 163.23
6.06687240 0.926296 -177.9 0.194303 -80.63 0.194303 -80.63 0.926499 163.00
6.06687260 0.926988 -178.1 0.190596 -80.51 0.190596 -80.51 0.927191 162.78
6.06687280 0.927666 -178.3 0.186888 -80.37 0.186888 -80.37 0.927869 162.55
6.06687300 0.928331 -178.5 0.183180 -80.22 0.183180 -80.22 0.928534 162.32
6.06687320 0.928982 -178.8 0.179472 -80.06 0.179472 -80.06 0.929185 162.10
6.06687340 0.929619 -179.0 0.175765 -79.87 0.175765 -79.87 0.929822 161.87
6.06687360 0.930242 -179.2 0.172061 -79.67 0.172061 -79.67 0.930445 161.64
6.06687380 0.930851 -179.4 0.168359 -79.45 0.168359 -79.45 0.931054 161.41
6.06687400 0.931446 -179.7 0.164661 -79.21 0.164661 -79.21 0.931650 161.19
6.06687420 0.932026 -179.9 0.160968 -78.95 0.160968 -78.95 0.932230 160.96
6.06687440 0.932593 179.86 0.157280 -78.66 0.157280 -78.66 0.932797 160.73
6.06687460 0.933145 179.63 0.153599 -78.35 0.153599 -78.35 0.933349 160.50
6.06687480 0.933683 179.40 0.149926 -78.01 0.149926 -78.01 0.933887 160.27
6.06687500 0.934206 179.17 0.146262 -77.65 0.146262 -77.65 0.934411 160.04
6.06687520 0.934715 178.94 0.142609 -77.25 0.142609 -77.25 0.934920 159.81