! Sonnet Data File
! From: em Version : 14.52
! From Project: w0
! Data is De-embedded 
! Data File Written: 07/15/2018 02:43:21
!< HDATE 07/13/2018 23:43:24
!< MDATE 07/14/2018 22:15:24
# GHZ S MA R 50.00000
6.15000000 0.061513 48.001 0.998106 -41.76 0.998106 -41.76 0.061513 48.486
!< P1 F=6.15 Eeff=(5.67106215 -5.1685e-6) Z0=(55.9970626 2.55186e-5) R=0.00797695 C=0.00297289 
!< P2 F=6.15 Eeff=(5.67106215 -5.1685e-6) Z0=(55.9970626 2.55186e-5) R=0.00797695 C=0.00297289 
6.15500000 0.061468 47.916 0.998109 -41.80 0.998109 -41.80 0.061468 48.491
6.16000000 0.061412 47.825 0.998112 -41.84 0.998112 -41.84 0.061412 48.501
6.16500000 0.061343 47.726 0.998116 -41.88 0.998116 -41.88 0.061343 48.518
6.17000000 0.061258 47.618 0.998122 -41.92 0.998122 -41.92 0.061258 48.542
6.17500000 0.061153 47.497 0.998128 -41.96 0.998128 -41.96 0.061153 48.576
6.18000000 0.061024 47.361 0.998136 -42.01 0.998136 -42.01 0.061024 48.622
6.18500000 0.060864 47.206 0.998146 -42.06 0.998146 -42.06 0.060864 48.683
6.19000000 0.060663 47.025 0.998158 -42.11 0.998158 -42.11 0.060663 48.764
6.19500000 0.060408 46.809 0.998173 -42.16 0.998173 -42.16 0.060408 48.873
6.20000000 0.060079 46.544 0.998193 -42.22 0.998193 -42.22 0.060079 49.021
6.20500000 0.059642 46.208 0.998219 -42.28 0.998219 -42.28 0.059642 49.225
6.21000000 0.059045 45.762 0.998254 -42.36 0.998254 -42.36 0.059045 49.518
6.21500000 0.058190 45.134 0.998304 -42.45 0.998304 -42.45 0.058190 49.959
6.22000000 0.056882 44.166 0.998379 -42.58 0.998379 -42.58 0.056883 50.677
6.22500000 0.054665 42.454 0.998502 -42.77 0.998502 -42.77 0.054668 52.013
6.23000000 0.050177 38.524 0.998735 -43.12 0.998735 -43.12 0.050184 55.239
!< P1 F=6.23 Eeff=(5.6710572 -5.168e-6) Z0=(55.9970054 2.5523e-5) R=0.00787381 C=0.00297288 
!< P2 F=6.23 Eeff=(5.6710572 -5.168e-6) Z0=(55.9970054 2.5523e-5) R=0.00787381 C=0.00297288 
6.23020000 0.049902 38.257 0.998749 -43.14 0.998749 -43.14 0.049909 55.464
6.23040000 0.049616 37.975 0.998763 -43.17 0.998763 -43.17 0.049623 55.701
6.23060000 0.049318 37.678 0.998777 -43.19 0.998777 -43.19 0.049325 55.952
6.23080000 0.049007 37.363 0.998792 -43.21 0.998792 -43.21 0.049014 56.219
6.23100000 0.048682 37.029 0.998808 -43.24 0.998808 -43.24 0.048690 56.503
6.23120000 0.048343 36.675 0.998824 -43.27 0.998824 -43.27 0.048351 56.805
6.23140000 0.047988 36.297 0.998841 -43.29 0.998841 -43.29 0.047997 57.127
6.23160000 0.047617 35.895 0.998858 -43.32 0.998858 -43.32 0.047626 57.471
6.23180000 0.047229 35.465 0.998876 -43.35 0.998876 -43.35 0.047239 57.841
6.23200000 0.046822 35.005 0.998895 -43.39 0.998895 -43.39 0.046832 58.237
6.23220000 0.046395 34.512 0.998914 -43.42 0.998914 -43.42 0.046406 58.664
6.23240000 0.045947 33.980 0.998934 -43.46 0.998934 -43.46 0.045959 59.124
6.23260000 0.045476 33.407 0.998956 -43.49 0.998956 -43.49 0.045489 59.622
6.23280000 0.044981 32.787 0.998977 -43.53 0.998977 -43.53 0.044994 60.163
6.23300000 0.044459 32.114 0.999000 -43.58 0.999000 -43.58 0.044474 60.752
6.23320000 0.043910 31.382 0.999024 -43.62 0.999024 -43.62 0.043926 61.396
6.23340000 0.043332 30.581 0.999048 -43.67 0.999048 -43.67 0.043349 62.102
6.23360000 0.042721 29.702 0.999073 -43.72 0.999073 -43.72 0.042740 62.879
6.23380000 0.042077 28.734 0.999100 -43.78 0.999100 -43.78 0.042097 63.739
6.23400000 0.041397 27.663 0.999127 -43.84 0.999127 -43.84 0.041419 64.694
6.23420000 0.040679 26.472 0.999155 -43.90 0.999155 -43.90 0.040704 65.761
6.23440000 0.039922 25.141 0.999185 -43.97 0.999185 -43.97 0.039949 66.958
6.23460000 0.039124 23.643 0.999215 -44.04 0.999215 -44.04 0.039154 68.310
6.23480000 0.038285 21.949 0.999245 -44.12 0.999245 -44.12 0.038318 69.846
6.23500000 0.037405 20.019 0.999277 -44.21 0.999277 -44.21 0.037442 71.603
6.23520000 0.036487 17.806 0.999308 -44.30 0.999308 -44.30 0.036529 73.628
6.23540000 0.035538 15.247 0.999340 -44.41 0.999340 -44.41 0.035585 75.978
6.23560000 0.034568 12.267 0.999371 -44.53 0.999371 -44.53 0.034621 78.728
6.23580000 0.033596 8.7706 0.999401 -44.65 0.999401 -44.65 0.033658 81.967
6.23600000 0.032655 4.6393 0.999428 -44.80 0.999428 -44.80 0.032726 85.809
6.23620000 0.031796 -0.266 0.999450 -44.96 0.999450 -44.96 0.031878 90.386
6.23640000 0.031098 -6.101 0.999466 -45.14 0.999466 -45.14 0.031194 95.843
6.23660000 0.030686 -13.01 0.999472 -45.35 0.999472 -45.35 0.030797 102.32
6.23680000 0.030741 -21.09 0.999461 -45.60 0.999461 -45.60 0.030870 109.88
6.23700000 0.031519 -30.28 0.999425 -45.88 0.999425 -45.88 0.031666 118.46
6.23720000 0.033355 -40.34 0.999351 -46.21 0.999351 -46.21 0.033520 127.80
6.23740000 0.036663 -50.79 0.999215 -46.61 0.999215 -46.61 0.036846 137.38
6.23760000 0.041941 -61.06 0.998981 -47.10 0.998981 -47.10 0.042138 146.60
6.23780000 0.049817 -70.67 0.998582 -47.71 0.998582 -47.71 0.050027 154.93
6.23800000 0.061192 -79.39 0.997895 -48.50 0.997895 -48.50 0.061416 162.03
6.23820000 0.077532 -87.25 0.996676 -49.55 0.996676 -49.55 0.077772 167.73
6.23840000 0.101477 -94.47 0.994384 -51.02 0.994384 -51.02 0.101741 171.96
6.23860000 0.138281 -101.5 0.989683 -53.22 0.989683 -53.22 0.138584 174.52
6.23880000 0.199898 -109.3 0.978555 -56.87 0.978555 -56.87 0.200266 174.85
!< P1 F=6.2388 Eeff=(5.67105681 -5.169e-6) Z0=(55.9969954 2.5523e-5) R=0.00786401 C=0.00297287 
!< P2 F=6.2388 Eeff=(5.67105681 -5.169e-6) Z0=(55.9969954 2.5523e-5) R=0.00786401 C=0.00297287 
6.23880500 0.201953 -109.5 0.978110 -56.99 0.978110 -56.99 0.202324 174.82
6.23881000 0.204042 -109.7 0.977655 -57.12 0.977655 -57.12 0.204415 174.78
6.23881500 0.206165 -109.9 0.977188 -57.24 0.977188 -57.24 0.206541 174.75
6.23882000 0.208324 -110.2 0.976708 -57.37 0.976708 -57.37 0.208702 174.71
6.23882500 0.210517 -110.4 0.976214 -57.50 0.976214 -57.50 0.210898 174.67
6.23883000 0.212748 -110.6 0.975707 -57.63 0.975707 -57.63 0.213131 174.62
6.23883500 0.215016 -110.8 0.975186 -57.77 0.975186 -57.77 0.215401 174.58
6.23884000 0.217322 -111.1 0.974650 -57.91 0.974650 -57.91 0.217709 174.53
6.23884500 0.219667 -111.3 0.974098 -58.04 0.974098 -58.04 0.220057 174.47
6.23885000 0.222052 -111.5 0.973531 -58.19 0.973531 -58.19 0.222445 174.42
6.23885500 0.224479 -111.8 0.972948 -58.33 0.972948 -58.33 0.224875 174.36
6.23886000 0.226948 -112.0 0.972348 -58.48 0.972348 -58.48 0.227346 174.30
6.23886500 0.229459 -112.2 0.971730 -58.63 0.971730 -58.63 0.229860 174.23
6.23887000 0.232015 -112.5 0.971094 -58.78 0.971094 -58.78 0.232419 174.17
6.23887500 0.234617 -112.7 0.970439 -58.93 0.970439 -58.93 0.235024 174.10
6.23888000 0.237265 -113.0 0.969764 -59.09 0.969764 -59.09 0.237674 174.02
6.23888500 0.239960 -113.2 0.969069 -59.25 0.969069 -59.25 0.240373 173.95
6.23889000 0.242705 -113.5 0.968353 -59.41 0.968353 -59.41 0.243120 173.86
6.23889500 0.245499 -113.7 0.967616 -59.58 0.967616 -59.58 0.245918 173.78
6.23890000 0.248345 -114.0 0.966855 -59.75 0.966855 -59.75 0.248767 173.69
6.23890500 0.251244 -114.3 0.966071 -59.92 0.966071 -59.92 0.251669 173.60
6.23891000 0.254197 -114.5 0.965262 -60.10 0.965262 -60.10 0.254625 173.51
6.23891500 0.257205 -114.8 0.964428 -60.28 0.964428 -60.28 0.257636 173.41
6.23892000 0.260270 -115.1 0.963567 -60.46 0.963567 -60.46 0.260705 173.30
6.23892500 0.263394 -115.3 0.962678 -60.65 0.962678 -60.65 0.263832 173.20
6.23893000 0.266577 -115.6 0.961761 -60.84 0.961761 -60.84 0.267019 173.09
6.23893500 0.269823 -115.9 0.960813 -61.03 0.960813 -61.03 0.270268 172.97
6.23894000 0.273132 -116.2 0.959835 -61.23 0.959835 -61.23 0.273581 172.85
6.23894500 0.276505 -116.5 0.958824 -61.44 0.958824 -61.44 0.276958 172.73
6.23895000 0.279946 -116.8 0.957780 -61.64 0.957780 -61.64 0.280402 172.60
6.23895500 0.283455 -117.1 0.956700 -61.85 0.956700 -61.85 0.283916 172.46
6.23896000 0.287035 -117.4 0.955583 -62.07 0.955583 -62.07 0.287499 172.33
6.23896500 0.290687 -117.7 0.954428 -62.29 0.954428 -62.29 0.291156 172.18
6.23897000 0.294414 -118.0 0.953233 -62.51 0.953233 -62.51 0.294887 172.03
6.23897500 0.298218 -118.3 0.951997 -62.74 0.951997 -62.74 0.298694 171.88
6.23898000 0.302100 -118.6 0.950717 -62.98 0.950717 -62.98 0.302581 171.72
6.23898500 0.306063 -118.9 0.949391 -63.22 0.949391 -63.22 0.306548 171.56
6.23899000 0.310110 -119.3 0.948018 -63.46 0.948018 -63.46 0.310599 171.38
6.23899500 0.314242 -119.6 0.946595 -63.71 0.946595 -63.71 0.314736 171.21
6.23900000 0.318463 -119.9 0.945121 -63.97 0.945121 -63.97 0.318961 171.02
6.23900500 0.322774 -120.3 0.943592 -64.23 0.943592 -64.23 0.323277 170.84
6.23901000 0.327178 -120.6 0.942006 -64.50 0.942006 -64.50 0.327686 170.64
6.23901500 0.331679 -121.0 0.940361 -64.77 0.940361 -64.77 0.332192 170.44
6.23902000 0.336278 -121.4 0.938654 -65.06 0.938654 -65.06 0.336796 170.23
6.23902500 0.340979 -121.7 0.936881 -65.34 0.936881 -65.34 0.341502 170.01
6.23903000 0.345785 -122.1 0.935041 -65.64 0.935041 -65.64 0.346313 169.79
6.23903500 0.350698 -122.5 0.933128 -65.94 0.933128 -65.94 0.351232 169.56
6.23904000 0.355723 -122.9 0.931141 -66.25 0.931141 -66.25 0.356262 169.32
6.23904500 0.360862 -123.3 0.929075 -66.56 0.929075 -66.56 0.361406 169.07
6.23905000 0.366118 -123.7 0.926927 -66.89 0.926927 -66.89 0.366668 168.81
6.23905500 0.371495 -124.1 0.924692 -67.22 0.924692 -67.22 0.372051 168.55
6.23906000 0.376997 -124.5 0.922366 -67.56 0.922366 -67.56 0.377559 168.27
6.23906500 0.382627 -125.0 0.919944 -67.91 0.919944 -67.91 0.383196 167.99
6.23907000 0.388390 -125.4 0.917422 -68.27 0.917422 -68.27 0.388964 167.70
6.23907500 0.394288 -125.9 0.914794 -68.64 0.914794 -68.64 0.394869 167.39
6.23908000 0.400326 -126.3 0.912055 -69.02 0.912055 -69.02 0.400913 167.08
6.23908500 0.406508 -126.8 0.909199 -69.41 0.909199 -69.41 0.407102 166.76
6.23909000 0.412838 -127.3 0.906220 -69.81 0.906220 -69.81 0.413439 166.42
6.23909500 0.419321 -127.8 0.903112 -70.22 0.903112 -70.22 0.419929 166.08
6.23910000 0.425960 -128.3 0.899867 -70.64 0.899867 -70.64 0.426575 165.72
6.23910500 0.432761 -128.8 0.896479 -71.07 0.896479 -71.07 0.433383 165.35
6.23911000 0.439727 -129.3 0.892939 -71.52 0.892939 -71.52 0.440357 164.96
6.23911500 0.446863 -129.8 0.889239 -71.97 0.889239 -71.97 0.447501 164.57
6.23912000 0.454174 -130.4 0.885371 -72.44 0.885371 -72.44 0.454820 164.16
6.23912500 0.461665 -131.0 0.881325 -72.93 0.881325 -72.93 0.462319 163.73
6.23913000 0.469340 -131.6 0.877092 -73.43 0.877092 -73.43 0.470002 163.29
6.23913500 0.477204 -132.1 0.872661 -73.94 0.872661 -73.94 0.477874 162.84
6.23914000 0.485261 -132.8 0.868021 -74.47 0.868021 -74.47 0.485940 162.37
6.23914500 0.493517 -133.4 0.863161 -75.01 0.863161 -75.01 0.494205 161.88
6.23915000 0.501975 -134.0 0.858067 -75.57 0.858067 -75.57 0.502672 161.38
6.23915500 0.510640 -134.7 0.852727 -76.15 0.852727 -76.15 0.511346 160.85
6.23916000 0.519517 -135.4 0.847127 -76.74 0.847127 -76.74 0.520232 160.31
6.23916500 0.528609 -136.1 0.841252 -77.36 0.841252 -77.36 0.529334 159.75
6.23917000 0.537920 -136.8 0.835086 -77.99 0.835086 -77.99 0.538655 159.17
6.23917500 0.547454 -137.5 0.828613 -78.64 0.828613 -78.64 0.548199 158.57
6.23918000 0.557214 -138.3 0.821816 -79.31 0.821816 -79.31 0.557970 157.95
6.23918500 0.567203 -139.1 0.814676 -80.01 0.814676 -80.01 0.567969 157.30
6.23919000 0.577422 -139.9 0.807173 -80.72 0.807173 -80.72 0.578198 156.63
6.23919500 0.587873 -140.7 0.799288 -81.46 0.799288 -81.46 0.588661 155.94
6.23920000 0.598557 -141.5 0.790998 -82.22 0.790998 -82.22 0.599356 155.22
6.23920500 0.609473 -142.4 0.782281 -83.01 0.782281 -83.01 0.610284 154.48
6.23921000 0.620622 -143.3 0.773114 -83.82 0.773114 -83.82 0.621444 153.71
6.23921500 0.631999 -144.3 0.763472 -84.66 0.763472 -84.66 0.632833 152.91
6.23922000 0.643602 -145.2 0.753330 -85.52 0.753330 -85.52 0.644447 152.09
6.23922500 0.655425 -146.2 0.742659 -86.41 0.742659 -86.41 0.656283 151.23
6.23923000 0.667461 -147.2 0.731434 -87.33 0.731434 -87.33 0.668332 150.34
6.23923500 0.679703 -148.3 0.719626 -88.28 0.719626 -88.28 0.680586 149.42
6.23924000 0.692138 -149.4 0.707206 -89.26 0.707206 -89.26 0.693034 148.47
6.23924500 0.704754 -150.5 0.694143 -90.27 0.694143 -90.27 0.705663 147.48
6.23925000 0.716143 -151.5 0.681983 -91.20 0.681983 -91.20 0.717060 146.58
!< P1 F=6.23925 Eeff=(5.67105663 -5.1687e-6) Z0=(55.9969942 2.55186e-5) R=0.0078595 C=0.00297287 
!< P2 F=6.23925 Eeff=(5.67105663 -5.1687e-6) Z0=(55.9969942 2.55186e-5) R=0.0078595 C=0.00297287 
6.23925100 0.718719 -151.7 0.679163 -91.41 0.679163 -91.41 0.719638 146.37
6.23925200 0.721301 -152.0 0.676314 -91.63 0.676314 -91.63 0.722223 146.16
6.23925300 0.723889 -152.2 0.673437 -91.84 0.673437 -91.84 0.724813 145.95
6.23925400 0.726482 -152.4 0.670532 -92.06 0.670532 -92.06 0.727409 145.74
6.23925500 0.729081 -152.7 0.667597 -92.28 0.667597 -92.28 0.730010 145.53
6.23925600 0.731684 -152.9 0.664633 -92.49 0.664633 -92.49 0.732617 145.31
6.23925700 0.734293 -153.2 0.661640 -92.71 0.661640 -92.71 0.735228 145.10
6.23925800 0.736906 -153.4 0.658617 -92.93 0.658617 -92.93 0.737844 144.88
6.23925900 0.739524 -153.6 0.655564 -93.16 0.655564 -93.16 0.740464 144.66
6.23926000 0.742146 -153.9 0.652480 -93.38 0.652480 -93.38 0.743089 144.44
6.23926100 0.744773 -154.1 0.649367 -93.61 0.649367 -93.61 0.745718 144.21
6.23926200 0.747403 -154.4 0.646222 -93.83 0.646222 -93.83 0.748351 143.99
6.23926300 0.750037 -154.6 0.643047 -94.06 0.643047 -94.06 0.750988 143.76
6.23926400 0.752675 -154.9 0.639840 -94.29 0.639840 -94.29 0.753628 143.54
6.23926500 0.755316 -155.1 0.636602 -94.52 0.636602 -94.52 0.756271 143.31
6.23926600 0.757959 -155.4 0.633333 -94.75 0.633333 -94.75 0.758918 143.08
6.23926700 0.760606 -155.7 0.630031 -94.98 0.630031 -94.98 0.761567 142.85
6.23926800 0.763255 -155.9 0.626698 -95.22 0.626698 -95.22 0.764219 142.61
6.23926900 0.765907 -156.2 0.623332 -95.45 0.623332 -95.45 0.766873 142.38
6.23927000 0.768560 -156.4 0.619934 -95.69 0.619934 -95.69 0.769529 142.14
6.23927100 0.771215 -156.7 0.616503 -95.93 0.616503 -95.93 0.772187 141.91
6.23927200 0.773872 -157.0 0.613039 -96.17 0.613039 -96.17 0.774846 141.67
6.23927300 0.776530 -157.2 0.609542 -96.41 0.609542 -96.41 0.777506 141.43
6.23927400 0.779188 -157.5 0.606011 -96.65 0.606011 -96.65 0.780168 141.18
6.23927500 0.781848 -157.8 0.602447 -96.90 0.602447 -96.90 0.782830 140.94
6.23927600 0.784508 -158.0 0.598850 -97.14 0.598850 -97.14 0.785492 140.69
6.23927700 0.787167 -158.3 0.595218 -97.39 0.595218 -97.39 0.788154 140.45
6.23927800 0.789827 -158.6 0.591552 -97.64 0.591552 -97.64 0.790816 140.20
6.23927900 0.792485 -158.9 0.587852 -97.88 0.587852 -97.88 0.793478 139.95
6.23928000 0.795143 -159.1 0.584118 -98.13 0.584118 -98.13 0.796138 139.70
6.23928100 0.797800 -159.4 0.580348 -98.39 0.580348 -98.39 0.798797 139.44
6.23928200 0.800455 -159.7 0.576544 -98.64 0.576544 -98.64 0.801455 139.19
6.23928300 0.803108 -160.0 0.572705 -98.89 0.572705 -98.89 0.804111 138.93
6.23928400 0.805759 -160.3 0.568830 -99.15 0.568830 -99.15 0.806764 138.67
6.23928500 0.808407 -160.5 0.564921 -99.41 0.564921 -99.41 0.809415 138.41
6.23928600 0.811052 -160.8 0.560975 -99.66 0.560975 -99.66 0.812062 138.15
6.23928700 0.813694 -161.1 0.556994 -99.92 0.556994 -99.92 0.814707 137.89
6.23928800 0.816332 -161.4 0.552978 -100.2 0.552978 -100.2 0.817347 137.63
6.23928900 0.818966 -161.7 0.548925 -100.4 0.548925 -100.4 0.819984 137.36
6.23929000 0.821595 -162.0 0.544836 -100.7 0.544836 -100.7 0.822615 137.09
6.23929100 0.824220 -162.3 0.540711 -101.0 0.540711 -101.0 0.825242 136.82
6.23929200 0.826839 -162.6 0.536550 -101.2 0.536550 -101.2 0.827864 136.55
6.23929300 0.829452 -162.9 0.532352 -101.5 0.532352 -101.5 0.830480 136.28
6.23929400 0.832059 -163.2 0.528118 -101.8 0.528118 -101.8 0.833089 136.01
6.23929500 0.834660 -163.5 0.523847 -102.0 0.523847 -102.0 0.835693 135.73
6.23929600 0.837254 -163.8 0.519540 -102.3 0.519540 -102.3 0.838289 135.45
6.23929700 0.839840 -164.1 0.515195 -102.6 0.515195 -102.6 0.840877 135.17
6.23929800 0.842419 -164.4 0.510814 -102.9 0.510814 -102.9 0.843458 134.89
6.23929900 0.844989 -164.7 0.506396 -103.1 0.506396 -103.1 0.846031 134.61
6.23930000 0.847550 -165.0 0.501941 -103.4 0.501941 -103.4 0.848594 134.33
6.23930100 0.850102 -165.3 0.497449 -103.7 0.497449 -103.7 0.851149 134.04
6.23930200 0.852645 -165.6 0.492921 -104.0 0.492921 -104.0 0.853694 133.76
6.23930300 0.855177 -165.9 0.488355 -104.2 0.488355 -104.2 0.856228 133.47
6.23930400 0.857699 -166.3 0.483751 -104.5 0.483751 -104.5 0.858752 133.18
6.23930500 0.860209 -166.6 0.479111 -104.8 0.479111 -104.8 0.861265 132.89
6.23930600 0.862708 -166.9 0.474434 -105.1 0.474434 -105.1 0.863767 132.59
6.23930700 0.865195 -167.2 0.469720 -105.4 0.469720 -105.4 0.866256 132.30
6.23930800 0.867670 -167.5 0.464969 -105.6 0.464969 -105.6 0.868732 132.00
6.23930900 0.870131 -167.9 0.460181 -105.9 0.460181 -105.9 0.871196 131.71
6.23931000 0.872579 -168.2 0.455356 -106.2 0.455356 -106.2 0.873646 131.41
6.23931100 0.875013 -168.5 0.450494 -106.5 0.450494 -106.5 0.876082 131.11
6.23931200 0.877432 -168.8 0.445595 -106.8 0.445595 -106.8 0.878503 130.80
6.23931300 0.879836 -169.2 0.440660 -107.1 0.440660 -107.1 0.880910 130.50
6.23931400 0.882225 -169.5 0.435688 -107.3 0.435688 -107.3 0.883300 130.20
6.23931500 0.884597 -169.8 0.430680 -107.6 0.430680 -107.6 0.885675 129.89
6.23931600 0.886953 -170.2 0.425635 -107.9 0.425635 -107.9 0.888033 129.58
6.23931700 0.889292 -170.5 0.420554 -108.2 0.420554 -108.2 0.890374 129.27
6.23931800 0.891613 -170.8 0.415437 -108.5 0.415437 -108.5 0.892697 128.96
6.23931900 0.893916 -171.2 0.410284 -108.8 0.410284 -108.8 0.895001 128.65
6.23932000 0.896200 -171.5 0.405096 -109.1 0.405096 -109.1 0.897287 128.33
6.23932100 0.898464 -171.8 0.399872 -109.4 0.399872 -109.4 0.899554 128.02
6.23932200 0.900709 -172.2 0.394612 -109.7 0.394612 -109.7 0.901801 127.70
6.23932300 0.902934 -172.5 0.389318 -110.0 0.389318 -110.0 0.904027 127.38
6.23932400 0.905137 -172.9 0.383989 -110.2 0.383989 -110.2 0.906233 127.06
6.23932500 0.907320 -173.2 0.378625 -110.5 0.378625 -110.5 0.908417 126.74
6.23932600 0.909480 -173.6 0.373227 -110.8 0.373227 -110.8 0.910579 126.42
6.23932700 0.911618 -173.9 0.367794 -111.1 0.367794 -111.1 0.912718 126.10
6.23932800 0.913732 -174.3 0.362328 -111.4 0.362328 -111.4 0.914834 125.77
6.23932900 0.915823 -174.6 0.356829 -111.7 0.356829 -111.7 0.916927 125.45
6.23933000 0.917890 -175.0 0.351296 -112.0 0.351296 -112.0 0.918996 125.12
6.23933100 0.919932 -175.3 0.345731 -112.3 0.345731 -112.3 0.921039 124.79
6.23933200 0.921949 -175.7 0.340133 -112.6 0.340133 -112.6 0.923058 124.46
6.23933300 0.923940 -176.0 0.334504 -112.8 0.334504 -112.8 0.925051 124.13
6.23933400 0.925905 -176.4 0.328842 -113.1 0.328842 -113.1 0.927017 123.80
6.23933500 0.927844 -176.7 0.323149 -113.4 0.323149 -113.4 0.928957 123.46
6.23933600 0.929754 -177.1 0.317426 -113.7 0.317426 -113.7 0.930869 123.13
6.23933700 0.931637 -177.5 0.311672 -114.0 0.311672 -114.0 0.932754 122.79
6.23933800 0.933492 -177.8 0.305888 -114.3 0.305888 -114.3 0.934610 122.46
6.23933900 0.935318 -178.2 0.300075 -114.6 0.300075 -114.6 0.936437 122.12
6.23934000 0.937114 -178.5 0.294233 -114.8 0.294233 -114.8 0.938234 121.78
6.23934100 0.938881 -178.9 0.288362 -115.1 0.288362 -115.1 0.940002 121.44
6.23934200 0.940617 -179.3 0.282463 -115.4 0.282463 -115.4 0.941739 121.10
6.23934300 0.942322 -179.6 0.276537 -115.7 0.276537 -115.7 0.943446 120.75
6.23934400 0.943996 179.99 0.270584 -115.9 0.270584 -115.9 0.945121 120.41
6.23934500 0.945638 179.63 0.264605 -116.2 0.264605 -116.2 0.946764 120.07
6.23934600 0.947247 179.26 0.258600 -116.4 0.258600 -116.4 0.948375 119.72
6.23934700 0.948824 178.89 0.252570 -116.7 0.252570 -116.7 0.949952 119.37
6.23934800 0.950368 178.51 0.246516 -117.0 0.246516 -117.0 0.951497 119.03
6.23934900 0.951878 178.14 0.240437 -117.2 0.240437 -117.2 0.953008 118.68
6.23935000 0.953354 177.77 0.234336 -117.4 0.234336 -117.4 0.954485 118.33
6.23935100 0.954795 177.40 0.228213 -117.7 0.228213 -117.7 0.955927 117.98
6.23935200 0.956201 177.02 0.222067 -117.9 0.222067 -117.9 0.957334 117.63
6.23935300 0.957572 176.65 0.215901 -118.1 0.215901 -118.1 0.958706 117.28
6.23935400 0.958907 176.27 0.209714 -118.4 0.209714 -118.4 0.960042 116.92
6.23935500 0.960206 175.89 0.203508 -118.6 0.203508 -118.6 0.961341 116.57
6.23935600 0.961469 175.51 0.197284 -118.8 0.197284 -118.8 0.962604 116.22
6.23935700 0.962694 175.14 0.191042 -118.9 0.191042 -118.9 0.963830 115.86
6.23935800 0.963882 174.76 0.184783 -119.1 0.184783 -119.1 0.965019 115.51
6.23935900 0.965033 174.38 0.178508 -119.3 0.178508 -119.3 0.966170 115.15
6.23936000 0.966145 174.00 0.172218 -119.4 0.172218 -119.4 0.967283 114.79
6.23936100 0.967220 173.62 0.165914 -119.6 0.165914 -119.6 0.968358 114.44
6.23936200 0.968256 173.24 0.159598 -119.7 0.159598 -119.7 0.969394 114.08
6.23936300 0.969252 172.85 0.153269 -119.8 0.153269 -119.8 0.970391 113.72
6.23936400 0.970210 172.47 0.146931 -119.8 0.146931 -119.8 0.971349 113.36
6.23936500 0.971128 172.09 0.140583 -119.9 0.140583 -119.9 0.972268 113.01
6.23936600 0.972007 171.71 0.134227 -119.9 0.134227 -119.9 0.973146 112.65
6.23936700 0.972846 171.32 0.127865 -119.9 0.127865 -119.9 0.973985 112.29
6.23936800 0.973644 170.94 0.121498 -119.8 0.121498 -119.8 0.974784 111.93
6.23936900 0.974402 170.55 0.115129 -119.7 0.115129 -119.7 0.975542 111.57
6.23937000 0.975120 170.17 0.108760 -119.5 0.108760 -119.5 0.976260 111.20
6.23937100 0.975797 169.79 0.102392 -119.3 0.102392 -119.3 0.976937 110.84
6.23937200 0.976433 169.40 0.096031 -118.9 0.096031 -118.9 0.977572 110.48
6.23937300 0.977028 169.02 0.089678 -118.5 0.089678 -118.5 0.978167 110.12
6.23937400 0.977581 168.63 0.083338 -118.0 0.083338 -118.0 0.978721 109.76
6.23937500 0.978094 168.25 0.077018 -117.3 0.077018 -117.3 0.979233 109.40
6.23937600 0.978565 167.86 0.070725 -116.4 0.070725 -116.4 0.979704 109.04
6.23937700 0.978995 167.47 0.064468 -115.2 0.064468 -115.2 0.980133 108.67
6.23937800 0.979383 167.09 0.058263 -113.8 0.058263 -113.8 0.980520 108.31
6.23937900 0.979729 166.70 0.052129 -111.9 0.052129 -111.9 0.980866 107.95
6.23938000 0.980034 166.32 0.046096 -109.4 0.046096 -109.4 0.981171 107.59
6.23938100 0.980297 165.93 0.040212 -106.0 0.040212 -106.0 0.981433 107.23
6.23938200 0.980518 165.55 0.034554 -101.5 0.034554 -101.5 0.981654 106.86
6.23938300 0.980698 165.16 0.029254 -95.02 0.029254 -95.02 0.981833 106.50
6.23938400 0.980836 164.78 0.024544 -85.77 0.024544 -85.77 0.981970 106.14
6.23938500 0.980932 164.39 0.020827 -72.58 0.020827 -72.58 0.982066 105.78
6.23938600 0.980987 164.01 0.018703 -55.04 0.018703 -55.04 0.982120 105.42
6.23938700 0.981000 163.62 0.018718 -35.41 0.018718 -35.41 0.982133 105.06
!< P1 F=6.239387 Eeff=(5.67105644 -5.1686e-6) Z0=(55.9969974 2.5523e-5) R=0.00786134 C=0.00297288 
!< P2 F=6.239387 Eeff=(5.67105644 -5.1686e-6) Z0=(55.9969974 2.5523e-5) R=0.00786134 C=0.00297288 
6.23938800 0.980973 163.24 0.020839 -18.06 0.020839 -18.06 0.982104 104.70
6.23938900 0.980904 162.86 0.024514 -5.005 0.024514 -5.005 0.982035 104.34
6.23939000 0.980795 162.48 0.029156 4.1682 0.029156 4.1682 0.981925 103.99
6.23939100 0.980646 162.10 0.034373 10.583 0.034373 10.583 0.981774 103.63
6.23939200 0.980456 161.72 0.039934 15.156 0.039934 15.156 0.981584 103.27
6.23939300 0.980227 161.35 0.045711 18.499 0.045711 18.499 0.981353 102.92
6.23939400 0.979957 160.97 0.051627 20.997 0.051627 20.997 0.981083 102.56
6.23939500 0.979648 160.59 0.057635 22.899 0.057635 22.899 0.980772 102.21
6.23939600 0.979299 160.21 0.063705 24.369 0.063705 24.369 0.980422 101.85
6.23939700 0.978911 159.83 0.069818 25.517 0.069818 25.517 0.980033 101.50
6.23939800 0.978484 159.46 0.075959 26.419 0.075959 26.419 0.979604 101.14
6.23939900 0.978018 159.08 0.082118 27.130 0.082118 27.130 0.979137 100.79
6.23940000 0.977514 158.71 0.088288 27.690 0.088288 27.690 0.978631 100.44
6.23940100 0.976971 158.33 0.094464 28.129 0.094464 28.129 0.978087 100.09
6.23940200 0.976390 157.96 0.100640 28.468 0.100640 28.468 0.977504 99.737
6.23940300 0.975771 157.59 0.106814 28.726 0.106814 28.726 0.976884 99.387
6.23940400 0.975115 157.21 0.112981 28.916 0.112981 28.916 0.976226 99.038
6.23940500 0.974422 156.84 0.119141 29.049 0.119141 29.049 0.975532 98.689
6.23940600 0.973692 156.47 0.125290 29.133 0.125290 29.133 0.974800 98.341
6.23940700 0.972925 156.10 0.131427 29.175 0.131427 29.175 0.974032 97.994
6.23940800 0.972123 155.73 0.137551 29.182 0.137551 29.182 0.973227 97.648
6.23940900 0.971284 155.36 0.143659 29.158 0.143659 29.158 0.972387 97.302
6.23941000 0.970410 155.00 0.149751 29.106 0.149751 29.106 0.971512 96.958
6.23941100 0.969502 154.63 0.155826 29.031 0.155826 29.031 0.970601 96.614
6.23941200 0.968558 154.27 0.161882 28.936 0.161882 28.936 0.969656 96.272
6.23941300 0.967581 153.90 0.167919 28.822 0.167919 28.822 0.968676 95.930
6.23941400 0.966569 153.54 0.173935 28.692 0.173935 28.692 0.967663 95.589
6.23941500 0.965524 153.18 0.179930 28.547 0.179930 28.547 0.966616 95.249
6.23941600 0.964446 152.81 0.185902 28.390 0.185902 28.390 0.965536 94.911
6.23941700 0.963336 152.45 0.191852 28.221 0.191852 28.221 0.964423 94.573
6.23941800 0.962193 152.09 0.197779 28.042 0.197779 28.042 0.963279 94.236
6.23941900 0.961019 151.74 0.203681 27.854 0.203681 27.854 0.962102 93.901
6.23942000 0.959813 151.38 0.209558 27.657 0.209558 27.657 0.960895 93.566
6.23942100 0.958577 151.02 0.215410 27.453 0.215410 27.453 0.959656 93.233
6.23942200 0.957310 150.67 0.221236 27.243 0.221236 27.243 0.958387 92.901
6.23942300 0.956014 150.32 0.227035 27.026 0.227035 27.026 0.957088 92.570
6.23942400 0.954688 149.96 0.232807 26.804 0.232807 26.804 0.955760 92.240
6.23942500 0.953333 149.61 0.238551 26.576 0.238551 26.576 0.954403 91.911
6.23942600 0.951949 149.26 0.244268 26.345 0.244268 26.345 0.953017 91.584
6.23942700 0.950538 148.91 0.249955 26.109 0.249955 26.109 0.951603 91.258
6.23942800 0.949099 148.57 0.255614 25.870 0.255614 25.870 0.950162 90.933
6.23942900 0.947633 148.22 0.261243 25.627 0.261243 25.627 0.948694 90.609
6.23943000 0.946141 147.87 0.266843 25.382 0.266843 25.382 0.947199 90.287
6.23943100 0.944622 147.53 0.272412 25.134 0.272412 25.134 0.945678 89.965
6.23943200 0.943078 147.19 0.277950 24.883 0.277950 24.883 0.944131 89.646
6.23943300 0.941509 146.85 0.283458 24.630 0.283458 24.630 0.942560 89.327
6.23943400 0.939916 146.51 0.288934 24.376 0.288934 24.376 0.940964 89.010
6.23943500 0.938298 146.17 0.294378 24.120 0.294378 24.120 0.939344 88.694
6.23943600 0.936657 145.83 0.299791 23.862 0.299791 23.862 0.937700 88.380
6.23943700 0.934993 145.50 0.305172 23.603 0.305172 23.603 0.936033 88.067
6.23943800 0.933306 145.16 0.310520 23.343 0.310520 23.343 0.934344 87.755
6.23943900 0.931597 144.83 0.315835 23.082 0.315835 23.082 0.932632 87.445
6.23944000 0.929867 144.50 0.321117 22.820 0.321117 22.820 0.930899 87.136
6.23944100 0.928115 144.17 0.326366 22.558 0.326366 22.558 0.929145 86.828
6.23944200 0.926343 143.84 0.331582 22.294 0.331582 22.294 0.927370 86.522
6.23944300 0.924551 143.52 0.336764 22.031 0.336764 22.031 0.925575 86.218
6.23944400 0.922739 143.19 0.341913 21.767 0.341913 21.767 0.923761 85.915
6.23944500 0.920909 142.87 0.347027 21.502 0.347027 21.502 0.921928 85.613
6.23944600 0.919059 142.54 0.352107 21.238 0.352107 21.238 0.920075 85.313
6.23944700 0.917192 142.22 0.357153 20.974 0.357153 20.974 0.918205 85.014
6.23944800 0.915307 141.90 0.362165 20.709 0.362165 20.709 0.916317 84.717
6.23944900 0.913405 141.59 0.367142 20.445 0.367142 20.445 0.914412 84.421
6.23945000 0.911486 141.27 0.372085 20.181 0.372085 20.181 0.912491 84.127
6.23945100 0.909551 140.96 0.376992 19.917 0.376992 19.917 0.910553 83.834
6.23945200 0.907600 140.64 0.381865 19.653 0.381865 19.653 0.908599 83.543
6.23945300 0.905634 140.33 0.386703 19.390 0.386703 19.390 0.906630 83.253
6.23945400 0.903654 140.02 0.391506 19.127 0.391506 19.127 0.904647 82.965
6.23945500 0.901658 139.71 0.396275 18.865 0.396275 18.865 0.902649 82.678
6.23945600 0.899650 139.40 0.401008 18.603 0.401008 18.603 0.900637 82.393
6.23945700 0.897627 139.10 0.405706 18.341 0.405706 18.341 0.898612 82.109
6.23945800 0.895592 138.79 0.410369 18.081 0.410369 18.081 0.896574 81.827
6.23945900 0.893544 138.49 0.414997 17.821 0.414997 17.821 0.894523 81.546
6.23946000 0.891485 138.19 0.419589 17.561 0.419589 17.561 0.892460 81.267
6.23946100 0.889413 137.89 0.424147 17.303 0.424147 17.303 0.890386 80.990
6.23946200 0.887330 137.59 0.428670 17.045 0.428670 17.045 0.888300 80.714
6.23946300 0.885237 137.30 0.433157 16.788 0.433157 16.788 0.886204 80.439
6.23946400 0.883133 137.00 0.437610 16.531 0.437610 16.531 0.884097 80.166
6.23946500 0.881020 136.71 0.442028 16.276 0.442028 16.276 0.881980 79.895
6.23946600 0.878897 136.42 0.446410 16.022 0.446410 16.022 0.879854 79.625
6.23946700 0.876764 136.13 0.450758 15.768 0.450758 15.768 0.877719 79.357
6.23946800 0.874623 135.84 0.455071 15.515 0.455071 15.515 0.875575 79.090
6.23946900 0.872474 135.55 0.459350 15.263 0.459350 15.263 0.873422 78.825
6.23947000 0.870317 135.27 0.463593 15.013 0.463593 15.013 0.871262 78.562
6.23947100 0.868152 134.98 0.467803 14.763 0.467803 14.763 0.869094 78.300
6.23947200 0.865980 134.70 0.471978 14.514 0.471978 14.514 0.866919 78.039
6.23947300 0.863801 134.42 0.476118 14.267 0.476118 14.267 0.864738 77.780
6.23947400 0.861616 134.14 0.480224 14.020 0.480224 14.020 0.862549 77.523
6.23947500 0.859425 133.86 0.484296 13.774 0.484296 13.774 0.860355 77.267
6.23947600 0.857228 133.59 0.488334 13.530 0.488334 13.530 0.858155 77.013
6.23947700 0.855026 133.31 0.492339 13.286 0.492339 13.286 0.855950 76.760
6.23947800 0.852818 133.04 0.496309 13.044 0.496309 13.044 0.853740 76.509
6.23947900 0.850607 132.77 0.500246 12.803 0.500246 12.803 0.851525 76.259
6.23948000 0.848390 132.50 0.504150 12.563 0.504150 12.563 0.849305 76.011
6.23948100 0.846170 132.23 0.508020 12.324 0.508020 12.324 0.847082 75.764
6.23948200 0.843946 131.96 0.511857 12.086 0.511857 12.086 0.844855 75.519
6.23948300 0.841719 131.70 0.515661 11.849 0.515661 11.849 0.842625 75.275