! Sonnet Data File
! From: em Version : 14.52
! From Project: w0
! Data is De-embedded 
! Data File Written: 07/06/2018 11:52:51
!< HDATE 07/02/2018 15:54:15
!< MDATE 07/05/2018 17:48:47
# GHZ S MA R 50.00000
6.00000000 0.022313 51.296 0.999751 -40.41 0.999751 -40.41 0.022313 47.878
!< P1 F=6.0 Eeff=(5.67089458 -5.1692e-6) Z0=(51.6118612 2.3525e-5) R=0.00805449 C=0.00301429 
!< P2 F=6.0 Eeff=(5.67089458 -5.1692e-6) Z0=(51.6118612 2.3525e-5) R=0.00805449 C=0.00301429 
6.00500000 0.022328 51.264 0.999750 -40.45 0.999750 -40.45 0.022328 47.843
6.01000000 0.022344 51.232 0.999750 -40.48 0.999750 -40.48 0.022343 47.808
6.01500000 0.022359 51.201 0.999750 -40.51 0.999750 -40.51 0.022358 47.773
6.02000000 0.022374 51.169 0.999750 -40.55 0.999750 -40.55 0.022374 47.738
6.02500000 0.022389 51.137 0.999749 -40.58 0.999749 -40.58 0.022389 47.703
6.03000000 0.022405 51.105 0.999749 -40.62 0.999749 -40.62 0.022404 47.667
6.03500000 0.022420 51.073 0.999749 -40.65 0.999749 -40.65 0.022419 47.632
6.04000000 0.022435 51.041 0.999749 -40.68 0.999749 -40.68 0.022434 47.597
6.04500000 0.022450 51.009 0.999748 -40.72 0.999748 -40.72 0.022449 47.562
6.05000000 0.022465 50.977 0.999748 -40.75 0.999748 -40.75 0.022464 47.527
6.05500000 0.022480 50.945 0.999748 -40.78 0.999748 -40.78 0.022479 47.492
6.06000000 0.022495 50.913 0.999747 -40.82 0.999747 -40.82 0.022494 47.457
6.06500000 0.022510 50.880 0.999747 -40.85 0.999747 -40.85 0.022509 47.422
6.07000000 0.022525 50.848 0.999747 -40.89 0.999747 -40.89 0.022524 47.387
6.07500000 0.022540 50.816 0.999747 -40.92 0.999747 -40.92 0.022539 47.352
6.08000000 0.022555 50.784 0.999746 -40.95 0.999746 -40.95 0.022553 47.317
6.08500000 0.022570 50.752 0.999746 -40.99 0.999746 -40.99 0.022568 47.282
6.09000000 0.022585 50.719 0.999746 -41.02 0.999746 -41.02 0.022583 47.247
6.09500000 0.022600 50.687 0.999745 -41.05 0.999745 -41.05 0.022598 47.212
6.10000000 0.022615 50.655 0.999745 -41.09 0.999745 -41.09 0.022613 47.177
6.10500000 0.022630 50.623 0.999745 -41.12 0.999745 -41.12 0.022628 47.143
6.11000000 0.022645 50.590 0.999744 -41.16 0.999744 -41.16 0.022642 47.108
6.11500000 0.022660 50.558 0.999744 -41.19 0.999744 -41.19 0.022657 47.073
6.12000000 0.022675 50.525 0.999744 -41.22 0.999744 -41.22 0.022672 47.038
6.12500000 0.022689 50.493 0.999743 -41.26 0.999743 -41.26 0.022687 47.003
6.13000000 0.022704 50.461 0.999743 -41.29 0.999743 -41.29 0.022701 46.968
6.13500000 0.022719 50.428 0.999743 -41.32 0.999743 -41.32 0.022716 46.933
6.14000000 0.022733 50.395 0.999743 -41.36 0.999743 -41.36 0.022731 46.898
6.14500000 0.022748 50.363 0.999742 -41.39 0.999742 -41.39 0.022745 46.864
6.15000000 0.022763 50.330 0.999742 -41.42 0.999742 -41.42 0.022760 46.829
6.15500000 0.022777 50.298 0.999742 -41.46 0.999742 -41.46 0.022775 46.794
6.16000000 0.022792 50.265 0.999741 -41.49 0.999741 -41.49 0.022789 46.759
6.16500000 0.022806 50.232 0.999741 -41.53 0.999741 -41.53 0.022804 46.725
6.17000000 0.022821 50.200 0.999741 -41.56 0.999741 -41.56 0.022818 46.690
6.17500000 0.022835 50.167 0.999740 -41.59 0.999740 -41.59 0.022833 46.655
6.18000000 0.022850 50.134 0.999740 -41.63 0.999740 -41.63 0.022847 46.620
6.18500000 0.022864 50.101 0.999740 -41.66 0.999740 -41.66 0.022861 46.586
6.19000000 0.022878 50.069 0.999739 -41.69 0.999739 -41.69 0.022876 46.551
6.19500000 0.022893 50.036 0.999739 -41.73 0.999739 -41.73 0.022890 46.517
6.20000000 0.022907 50.003 0.999739 -41.76 0.999739 -41.76 0.022904 46.482
6.20500000 0.022921 49.970 0.999738 -41.80 0.999738 -41.80 0.022919 46.447
6.21000000 0.022936 49.937 0.999738 -41.83 0.999738 -41.83 0.022933 46.413
6.21500000 0.022950 49.904 0.999738 -41.86 0.999738 -41.86 0.022947 46.378
6.22000000 0.022964 49.871 0.999737 -41.90 0.999737 -41.90 0.022961 46.344
6.22500000 0.022978 49.838 0.999737 -41.93 0.999737 -41.93 0.022975 46.309
6.23000000 0.022992 49.805 0.999737 -41.96 0.999737 -41.96 0.022989 46.275
6.23500000 0.023006 49.771 0.999736 -42.00 0.999736 -42.00 0.023003 46.241
6.24000000 0.023020 49.738 0.999736 -42.03 0.999736 -42.03 0.023017 46.206
6.24500000 0.023033 49.705 0.999736 -42.07 0.999736 -42.07 0.023031 46.172
6.25000000 0.023047 49.671 0.999735 -42.10 0.999735 -42.10 0.023045 46.138
6.25500000 0.023061 49.638 0.999735 -42.13 0.999735 -42.13 0.023059 46.103
6.26000000 0.023075 49.605 0.999735 -42.17 0.999735 -42.17 0.023072 46.069
6.26500000 0.023088 49.571 0.999734 -42.20 0.999734 -42.20 0.023086 46.035
6.27000000 0.023102 49.537 0.999734 -42.23 0.999734 -42.23 0.023099 46.001
6.27500000 0.023115 49.504 0.999734 -42.27 0.999734 -42.27 0.023113 45.967
6.28000000 0.023128 49.470 0.999733 -42.30 0.999733 -42.30 0.023126 45.933
6.28500000 0.023142 49.436 0.999733 -42.34 0.999733 -42.34 0.023140 45.899
6.29000000 0.023155 49.402 0.999733 -42.37 0.999733 -42.37 0.023153 45.865
6.29500000 0.023168 49.368 0.999732 -42.40 0.999732 -42.40 0.023166 45.832
6.30000000 0.023181 49.334 0.999732 -42.44 0.999732 -42.44 0.023179 45.798
6.30500000 0.023194 49.300 0.999732 -42.47 0.999732 -42.47 0.023192 45.764
6.31000000 0.023207 49.266 0.999731 -42.50 0.999731 -42.50 0.023205 45.731
6.31500000 0.023219 49.232 0.999731 -42.54 0.999731 -42.54 0.023217 45.697
6.32000000 0.023232 49.197 0.999731 -42.57 0.999731 -42.57 0.023230 45.664
6.32500000 0.023244 49.162 0.999730 -42.61 0.999730 -42.61 0.023242 45.631
6.33000000 0.023256 49.128 0.999730 -42.64 0.999730 -42.64 0.023255 45.598
6.33500000 0.023268 49.093 0.999730 -42.67 0.999730 -42.67 0.023267 45.565
6.34000000 0.023280 49.058 0.999729 -42.71 0.999729 -42.71 0.023279 45.532
6.34500000 0.023292 49.023 0.999729 -42.74 0.999729 -42.74 0.023290 45.499
6.35000000 0.023303 48.987 0.999729 -42.78 0.999729 -42.78 0.023302 45.467
6.35500000 0.023314 48.951 0.999729 -42.81 0.999729 -42.81 0.023313 45.434
6.36000000 0.023325 48.916 0.999728 -42.84 0.999728 -42.84 0.023324 45.402
6.36500000 0.023336 48.879 0.999728 -42.88 0.999728 -42.88 0.023335 45.370
6.37000000 0.023347 48.843 0.999728 -42.91 0.999728 -42.91 0.023345 45.339
6.37500000 0.023357 48.806 0.999727 -42.95 0.999727 -42.95 0.023356 45.307
6.38000000 0.023366 48.769 0.999727 -42.98 0.999727 -42.98 0.023365 45.276
6.38500000 0.023376 48.732 0.999727 -43.01 0.999727 -43.01 0.023375 45.246
6.39000000 0.023384 48.694 0.999727 -43.05 0.999727 -43.05 0.023384 45.215
6.39500000 0.023393 48.656 0.999726 -43.08 0.999726 -43.08 0.023392 45.185
6.40000000 0.023401 48.617 0.999726 -43.12 0.999726 -43.12 0.023400 45.156
6.40500000 0.023408 48.577 0.999726 -43.15 0.999726 -43.15 0.023407 45.127
6.41000000 0.023414 48.537 0.999726 -43.18 0.999726 -43.18 0.023413 45.099
6.41500000 0.023419 48.496 0.999726 -43.22 0.999726 -43.22 0.023419 45.071
6.42000000 0.023424 48.454 0.999726 -43.25 0.999726 -43.25 0.023423 45.044
6.42500000 0.023427 48.411 0.999725 -43.29 0.999725 -43.29 0.023427 45.019
6.43000000 0.023429 48.366 0.999725 -43.32 0.999725 -43.32 0.023429 44.994
6.43500000 0.023430 48.320 0.999725 -43.36 0.999725 -43.36 0.023429 44.971
6.44000000 0.023428 48.273 0.999725 -43.39 0.999725 -43.39 0.023428 44.949
6.44500000 0.023424 48.223 0.999725 -43.43 0.999725 -43.43 0.023424 44.929
6.45000000 0.023418 48.170 0.999726 -43.46 0.999726 -43.46 0.023417 44.912
6.45500000 0.023407 48.114 0.999726 -43.50 0.999726 -43.50 0.023407 44.898
6.46000000 0.023393 48.053 0.999726 -43.53 0.999726 -43.53 0.023392 44.887
6.46500000 0.023372 47.986 0.999727 -43.57 0.999727 -43.57 0.023372 44.882
6.47000000 0.023344 47.912 0.999727 -43.60 0.999727 -43.60 0.023344 44.883
6.47500000 0.023305 47.828 0.999728 -43.64 0.999728 -43.64 0.023305 44.894
6.48000000 0.023251 47.728 0.999729 -43.68 0.999729 -43.68 0.023251 44.918
6.48500000 0.023175 47.606 0.999731 -43.72 0.999731 -43.72 0.023175 44.962
6.49000000 0.023063 47.447 0.999734 -43.76 0.999734 -43.76 0.023063 45.038
6.49500000 0.022891 47.225 0.999738 -43.80 0.999738 -43.80 0.022891 45.170
6.50000000 0.022600 46.876 0.999744 -43.86 0.999744 -43.86 0.022600 45.415
6.50500000 0.022025 46.207 0.999757 -43.93 0.999757 -43.93 0.022026 45.945
6.51000000 0.020433 44.247 0.999789 -44.06 0.999789 -44.06 0.020435 47.644
6.51500000 0.010976 -65.60 0.999815 -45.59 0.999815 -45.59 0.011160 153.58
!< P1 F=6.515 Eeff=(5.67085989 -5.1689e-6) Z0=(51.6116151 2.3525e-5) R=0.00741538 C=0.00301426 
!< P2 F=6.515 Eeff=(5.67085989 -5.1689e-6) Z0=(51.6116151 2.3525e-5) R=0.00741538 C=0.00301426 
6.51520000 0.020445 -91.01 0.999553 -46.24 0.999553 -46.24 0.020635 177.32
!< P1 F=6.5152 Eeff=(5.67085946 -5.17e-6) Z0=(51.6116141 2.3525e-5) R=0.00741389 C=0.00301426 
!< P2 F=6.5152 Eeff=(5.67085946 -5.17e-6) Z0=(51.6116141 2.3525e-5) R=0.00741389 C=0.00301426 
6.51520500 0.020814 -91.48 0.999541 -46.27 0.999541 -46.27 0.021004 177.73
6.51521000 0.021191 -91.94 0.999528 -46.29 0.999528 -46.29 0.021381 178.14
6.51521500 0.021577 -92.40 0.999515 -46.31 0.999515 -46.31 0.021768 178.54
6.51522000 0.021972 -92.85 0.999501 -46.34 0.999501 -46.34 0.022163 178.94
6.51522500 0.022376 -93.29 0.999487 -46.36 0.999487 -46.36 0.022567 179.33
6.51523000 0.022789 -93.73 0.999473 -46.39 0.999473 -46.39 0.022981 179.71
6.51523500 0.023212 -94.16 0.999457 -46.42 0.999457 -46.42 0.023404 -179.9
6.51524000 0.023645 -94.58 0.999441 -46.44 0.999441 -46.44 0.023838 -179.6
6.51524500 0.024089 -95.00 0.999425 -46.47 0.999425 -46.47 0.024282 -179.2
6.51525000 0.024542 -95.42 0.999408 -46.50 0.999408 -46.50 0.024736 -178.8
6.51525500 0.025007 -95.83 0.999390 -46.53 0.999390 -46.53 0.025202 -178.5
6.51526000 0.025483 -96.23 0.999371 -46.55 0.999371 -46.55 0.025678 -178.2
6.51526500 0.025971 -96.63 0.999352 -46.58 0.999352 -46.58 0.026166 -177.8
6.51527000 0.026470 -97.02 0.999332 -46.61 0.999332 -46.61 0.026666 -177.5
6.51527500 0.026982 -97.41 0.999311 -46.65 0.999311 -46.65 0.027179 -177.2
6.51528000 0.027507 -97.80 0.999289 -46.68 0.999289 -46.68 0.027704 -176.9
6.51528500 0.028044 -98.17 0.999267 -46.71 0.999267 -46.71 0.028242 -176.6
6.51529000 0.028595 -98.55 0.999243 -46.74 0.999243 -46.74 0.028794 -176.3
6.51529500 0.029160 -98.92 0.999218 -46.78 0.999218 -46.78 0.029360 -176.0
6.51530000 0.029740 -99.29 0.999193 -46.81 0.999193 -46.81 0.029940 -175.7
6.51530500 0.030334 -99.65 0.999166 -46.85 0.999166 -46.85 0.030536 -175.4
6.51531000 0.030944 -100.0 0.999138 -46.88 0.999138 -46.88 0.031147 -175.1
6.51531500 0.031570 -100.4 0.999109 -46.92 0.999109 -46.92 0.031774 -174.8
6.51532000 0.032213 -100.7 0.999078 -46.96 0.999078 -46.96 0.032417 -174.6
6.51532500 0.032873 -101.1 0.999047 -47.00 0.999047 -47.00 0.033078 -174.3
6.51533000 0.033551 -101.4 0.999013 -47.04 0.999013 -47.04 0.033757 -174.1
6.51533500 0.034247 -101.7 0.998979 -47.08 0.998979 -47.08 0.034454 -173.8
6.51534000 0.034963 -102.1 0.998942 -47.12 0.998942 -47.12 0.035171 -173.6
6.51534500 0.035698 -102.4 0.998904 -47.16 0.998904 -47.16 0.035908 -173.3
6.51535000 0.036455 -102.7 0.998864 -47.21 0.998864 -47.21 0.036666 -173.1
6.51535500 0.037233 -103.1 0.998823 -47.25 0.998823 -47.25 0.037445 -172.9
6.51536000 0.038033 -103.4 0.998779 -47.30 0.998779 -47.30 0.038247 -172.7
6.51536500 0.038857 -103.7 0.998733 -47.35 0.998733 -47.35 0.039073 -172.4
6.51537000 0.039706 -104.0 0.998685 -47.40 0.998685 -47.40 0.039923 -172.2
6.51537500 0.040580 -104.4 0.998634 -47.45 0.998634 -47.45 0.040798 -172.0
6.51538000 0.041480 -104.7 0.998581 -47.50 0.998581 -47.50 0.041700 -171.8
6.51538500 0.042409 -105.0 0.998525 -47.56 0.998525 -47.56 0.042630 -171.6
6.51539000 0.043366 -105.3 0.998466 -47.61 0.998466 -47.61 0.043590 -171.4
6.51539500 0.044354 -105.6 0.998405 -47.67 0.998405 -47.67 0.044579 -171.3
6.51540000 0.045373 -105.9 0.998340 -47.73 0.998340 -47.73 0.045600 -171.1
6.51540500 0.046426 -106.2 0.998271 -47.79 0.998271 -47.79 0.046655 -170.9
6.51541000 0.047513 -106.5 0.998198 -47.86 0.998198 -47.86 0.047745 -170.7
6.51541500 0.048637 -106.9 0.998122 -47.92 0.998122 -47.92 0.048871 -170.6
6.51542000 0.049800 -107.2 0.998041 -47.99 0.998041 -47.99 0.050035 -170.4
6.51542500 0.051002 -107.5 0.997956 -48.06 0.997956 -48.06 0.051240 -170.3
6.51543000 0.052247 -107.8 0.997866 -48.13 0.997866 -48.13 0.052487 -170.1
6.51543500 0.053536 -108.1 0.997770 -48.21 0.997770 -48.21 0.053779 -170.0
6.51544000 0.054872 -108.4 0.997669 -48.28 0.997669 -48.28 0.055118 -169.9
6.51544500 0.056258 -108.7 0.997561 -48.37 0.997561 -48.37 0.056506 -169.8
6.51545000 0.057696 -109.0 0.997447 -48.45 0.997447 -48.45 0.057947 -169.6
6.51545500 0.059188 -109.3 0.997326 -48.54 0.997326 -48.54 0.059443 -169.5
6.51546000 0.060739 -109.6 0.997196 -48.63 0.997196 -48.63 0.060997 -169.4
6.51546500 0.062352 -109.9 0.997059 -48.72 0.997059 -48.72 0.062612 -169.3
6.51547000 0.064029 -110.2 0.996912 -48.82 0.996912 -48.82 0.064293 -169.2
6.51547500 0.065776 -110.5 0.996756 -48.92 0.996756 -48.92 0.066044 -169.2
6.51548000 0.067596 -110.8 0.996588 -49.02 0.996588 -49.02 0.067868 -169.1
6.51548500 0.069494 -111.2 0.996409 -49.13 0.996409 -49.13 0.069770 -169.0
6.51549000 0.071476 -111.5 0.996217 -49.25 0.996217 -49.25 0.071756 -168.9
6.51549500 0.073546 -111.8 0.996012 -49.37 0.996012 -49.37 0.073830 -168.9
6.51550000 0.075711 -112.1 0.995790 -49.49 0.995790 -49.49 0.075999 -168.8
6.51550500 0.077976 -112.5 0.995553 -49.62 0.995553 -49.62 0.078270 -168.8
6.51551000 0.080350 -112.8 0.995296 -49.76 0.995296 -49.76 0.080649 -168.8
6.51551500 0.082840 -113.1 0.995019 -49.91 0.995019 -49.91 0.083144 -168.8
6.51552000 0.085455 -113.5 0.994720 -50.06 0.994720 -50.06 0.085764 -168.8
6.51552500 0.088203 -113.8 0.994396 -50.22 0.994396 -50.22 0.088519 -168.8
6.51553000 0.091096 -114.2 0.994044 -50.38 0.994044 -50.38 0.091418 -168.8
6.51553500 0.094145 -114.6 0.993661 -50.56 0.993661 -50.56 0.094473 -168.8
6.51554000 0.097363 -115.0 0.993244 -50.75 0.993244 -50.75 0.097698 -168.9
6.51554500 0.100764 -115.3 0.992789 -50.94 0.992789 -50.94 0.101106 -168.9
6.51555000 0.104363 -115.7 0.992291 -51.15 0.992291 -51.15 0.104713 -169.0
6.51555500 0.108178 -116.2 0.991744 -51.37 0.991744 -51.37 0.108537 -169.1
6.51556000 0.112230 -116.6 0.991143 -51.60 0.991143 -51.60 0.112598 -169.2
6.51556500 0.116540 -117.0 0.990479 -51.85 0.990479 -51.85 0.116917 -169.3
6.51557000 0.121133 -117.5 0.989746 -52.12 0.989746 -52.12 0.121520 -169.5
6.51557500 0.126038 -118.0 0.988931 -52.40 0.988931 -52.40 0.126436 -169.6
6.51558000 0.131287 -118.5 0.988025 -52.71 0.988025 -52.71 0.131696 -169.8
6.51558500 0.136916 -119.0 0.987012 -53.03 0.987012 -53.03 0.137338 -170.1
6.51559000 0.142968 -119.5 0.985877 -53.39 0.985877 -53.39 0.143403 -170.3
6.51559500 0.149491 -120.1 0.984598 -53.76 0.984598 -53.76 0.149941 -170.6
6.51560000 0.156540 -120.7 0.983152 -54.17 0.983152 -54.17 0.157006 -170.9
6.51560500 0.164181 -121.4 0.981510 -54.62 0.981510 -54.62 0.164663 -171.3
6.51561000 0.172488 -122.1 0.979635 -55.10 0.979635 -55.10 0.172989 -171.7
6.51561500 0.181551 -122.8 0.977483 -55.63 0.977483 -55.63 0.182072 -172.2
6.51562000 0.191473 -123.6 0.974998 -56.21 0.974998 -56.21 0.192016 -172.7
6.51562500 0.202377 -124.5 0.972112 -56.85 0.972112 -56.85 0.202945 -173.3
6.51563000 0.214411 -125.4 0.968734 -57.55 0.968734 -57.55 0.215006 -173.9
6.51563500 0.227751 -126.4 0.964753 -58.33 0.964753 -58.33 0.228376 -174.7
6.51564000 0.242609 -127.6 0.960022 -59.21 0.960022 -59.21 0.243267 -175.6
6.51564500 0.259242 -128.8 0.954348 -60.19 0.954348 -60.19 0.259938 -176.6
6.51565000 0.277965 -130.3 0.947476 -61.31 0.947476 -61.31 0.278702 -177.7
6.51565500 0.299160 -131.9 0.939064 -62.57 0.939064 -62.57 0.299945 -179.1
6.51566000 0.323298 -133.7 0.928643 -64.02 0.928643 -64.02 0.324136 179.36
6.51566500 0.352088 -135.8 0.915002 -65.77 0.915002 -65.77 0.352990 177.45
!< P1 F=6.515665 Eeff=(5.67085945 -5.1697e-6) Z0=(51.6116166 2.3525e-5) R=0.00741183 C=0.00301427 
!< P2 F=6.515665 Eeff=(5.67085945 -5.1697e-6) Z0=(51.6116166 2.3525e-5) R=0.00741183 C=0.00301427 
6.51566550 0.355083 -136.1 0.913506 -65.95 0.913506 -65.95 0.355992 177.25
6.51566600 0.358121 -136.3 0.911972 -66.14 0.911972 -66.14 0.359036 177.05
6.51566650 0.361202 -136.5 0.910400 -66.33 0.910400 -66.33 0.362125 176.84
6.51566700 0.364328 -136.8 0.908790 -66.52 0.908790 -66.52 0.365258 176.63
6.51566750 0.367499 -137.0 0.907139 -66.71 0.907139 -66.71 0.368436 176.41
6.51566800 0.370717 -137.2 0.905447 -66.91 0.905447 -66.91 0.371660 176.19
6.51566850 0.373981 -137.5 0.903712 -67.11 0.903712 -67.11 0.374932 175.97
6.51566900 0.377293 -137.7 0.901932 -67.31 0.901932 -67.31 0.378251 175.74
6.51566950 0.380654 -138.0 0.900108 -67.52 0.900108 -67.52 0.381620 175.51
6.51567000 0.384064 -138.3 0.898236 -67.73 0.898236 -67.73 0.385038 175.28
6.51567050 0.387525 -138.5 0.896316 -67.94 0.896316 -67.94 0.388506 175.04
6.51567100 0.391037 -138.8 0.894346 -68.16 0.894346 -68.16 0.392026 174.79
6.51567150 0.394601 -139.1 0.892324 -68.38 0.892324 -68.38 0.395598 174.55
6.51567200 0.398219 -139.3 0.890248 -68.61 0.890248 -68.61 0.399224 174.29
6.51567250 0.401890 -139.6 0.888118 -68.83 0.888118 -68.83 0.402903 174.04
6.51567300 0.405617 -139.9 0.885931 -69.07 0.885931 -69.07 0.406638 173.77
6.51567350 0.409399 -140.2 0.883685 -69.30 0.883685 -69.30 0.410429 173.51
6.51567400 0.413238 -140.5 0.881378 -69.54 0.881378 -69.54 0.414277 173.24
6.51567450 0.417136 -140.8 0.879009 -69.78 0.879009 -69.78 0.418183 172.96
6.51567500 0.421092 -141.1 0.876575 -70.03 0.876575 -70.03 0.422147 172.68
6.51567550 0.425108 -141.4 0.874074 -70.28 0.874074 -70.28 0.426172 172.39
6.51567600 0.429184 -141.7 0.871504 -70.54 0.871504 -70.54 0.430258 172.10
6.51567650 0.433323 -142.0 0.868862 -70.80 0.868862 -70.80 0.434406 171.80
6.51567700 0.437524 -142.4 0.866147 -71.07 0.866147 -71.07 0.438616 171.50
6.51567750 0.441789 -142.7 0.863355 -71.34 0.863355 -71.34 0.442891 171.19
6.51567800 0.446119 -143.0 0.860484 -71.61 0.860484 -71.61 0.447230 170.87
6.51567850 0.450514 -143.4 0.857531 -71.89 0.857531 -71.89 0.451635 170.55
6.51567900 0.454976 -143.7 0.854494 -72.17 0.854494 -72.17 0.456107 170.22
6.51567950 0.459506 -144.1 0.851369 -72.46 0.851369 -72.46 0.460647 169.89
6.51568000 0.464105 -144.5 0.848154 -72.75 0.848154 -72.75 0.465255 169.54
6.51568050 0.468772 -144.8 0.844846 -73.05 0.844846 -73.05 0.469934 169.20
6.51568100 0.473511 -145.2 0.841441 -73.36 0.841441 -73.36 0.474682 168.84
6.51568150 0.478320 -145.6 0.837936 -73.67 0.837936 -73.67 0.479502 168.48
6.51568200 0.483202 -146.0 0.834327 -73.98 0.834327 -73.98 0.484395 168.11
6.51568250 0.488157 -146.4 0.830612 -74.30 0.830612 -74.30 0.489360 167.73
6.51568300 0.493185 -146.8 0.826785 -74.63 0.826785 -74.63 0.494400 167.35
6.51568350 0.498288 -147.2 0.822845 -74.96 0.822845 -74.96 0.499514 166.96
6.51568400 0.503466 -147.6 0.818785 -75.30 0.818785 -75.30 0.504704 166.56
6.51568450 0.508721 -148.1 0.814603 -75.64 0.814603 -75.64 0.509970 166.15
6.51568500 0.514051 -148.5 0.810294 -75.99 0.810294 -75.99 0.515312 165.73
6.51568550 0.519459 -149.0 0.805854 -76.35 0.805854 -76.35 0.520732 165.31
6.51568600 0.524945 -149.4 0.801278 -76.71 0.801278 -76.71 0.526229 164.88
6.51568650 0.530508 -149.9 0.796561 -77.08 0.796561 -77.08 0.531805 164.43
6.51568700 0.536149 -150.4 0.791700 -77.45 0.791700 -77.45 0.537458 163.98
6.51568750 0.541869 -150.9 0.786688 -77.83 0.786688 -77.83 0.543191 163.52
6.51568800 0.547667 -151.3 0.781521 -78.22 0.781521 -78.22 0.549002 163.05
6.51568850 0.553544 -151.9 0.776193 -78.61 0.776193 -78.61 0.554891 162.57
6.51568900 0.559499 -152.4 0.770699 -79.01 0.770699 -79.01 0.560859 162.08
6.51568950 0.565532 -152.9 0.765033 -79.42 0.765033 -79.42 0.566905 161.57
6.51569000 0.571642 -153.4 0.759190 -79.84 0.759190 -79.84 0.573029 161.06
6.51569050 0.577829 -154.0 0.753164 -80.26 0.753164 -80.26 0.579230 160.54
6.51569100 0.584093 -154.5 0.746949 -80.69 0.746949 -80.69 0.585507 160.01
6.51569150 0.590431 -155.1 0.740539 -81.12 0.740539 -81.12 0.591859 159.46
6.51569200 0.596843 -155.7 0.733927 -81.56 0.733927 -81.56 0.598285 158.90
6.51569250 0.603328 -156.3 0.727107 -82.01 0.727107 -82.01 0.604784 158.33
6.51569300 0.609884 -156.9 0.720073 -82.46 0.720073 -82.46 0.611354 157.75
6.51569350 0.616508 -157.5 0.712817 -82.93 0.712817 -82.93 0.617993 157.16
6.51569400 0.623199 -158.1 0.705334 -83.39 0.705334 -83.39 0.624698 156.55
6.51569450 0.629953 -158.8 0.697617 -83.87 0.697617 -83.87 0.631467 155.94
6.51569500 0.636769 -159.4 0.689659 -84.35 0.689659 -84.35 0.638298 155.31
6.51569550 0.643643 -160.1 0.681452 -84.84 0.681452 -84.84 0.645187 154.66
6.51569600 0.650572 -160.8 0.672991 -85.33 0.672991 -85.33 0.652130 154.00
6.51569650 0.657550 -161.5 0.664268 -85.83 0.664268 -85.83 0.659124 153.33
6.51569700 0.664575 -162.2 0.655277 -86.33 0.655277 -86.33 0.666164 152.64
6.51569750 0.671641 -162.9 0.646011 -86.84 0.646011 -86.84 0.673245 151.94
6.51569800 0.678744 -163.6 0.636464 -87.35 0.636464 -87.35 0.680363 151.23
6.51569850 0.685877 -164.4 0.626629 -87.86 0.626629 -87.86 0.687511 150.50
6.51569900 0.693034 -165.1 0.616500 -88.38 0.616500 -88.38 0.694683 149.76
6.51569950 0.700209 -165.9 0.606071 -88.90 0.606071 -88.90 0.701873 149.00
6.51570000 0.707394 -166.7 0.595337 -89.42 0.595337 -89.42 0.709074 148.22
6.51570050 0.714582 -167.5 0.584293 -89.94 0.584293 -89.94 0.716277 147.43
6.51570100 0.721764 -168.4 0.572933 -90.46 0.572933 -90.46 0.723475 146.63
6.51570150 0.728933 -169.2 0.561255 -90.98 0.561255 -90.98 0.730658 145.81
6.51570200 0.736078 -170.1 0.549255 -91.49 0.549255 -91.49 0.737818 144.97
6.51570250 0.743189 -170.9 0.536929 -92.00 0.536929 -92.00 0.744944 144.12
6.51570300 0.750256 -171.8 0.524276 -92.50 0.524276 -92.50 0.752027 143.25
6.51570350 0.757268 -172.7 0.511296 -92.99 0.511296 -92.99 0.759053 142.37
6.51570400 0.764214 -173.7 0.497987 -93.47 0.497987 -93.47 0.766014 141.47
6.51570450 0.771081 -174.6 0.484353 -93.93 0.484353 -93.93 0.772895 140.56
6.51570500 0.777857 -175.6 0.470395 -94.37 0.470395 -94.37 0.779685 139.63
6.51570550 0.784529 -176.5 0.456118 -94.78 0.456118 -94.78 0.786370 138.68
6.51570600 0.791083 -177.5 0.441528 -95.17 0.441528 -95.17 0.792938 137.72
6.51570650 0.797506 -178.5 0.426633 -95.52 0.426633 -95.52 0.799373 136.75
6.51570700 0.803782 -179.5 0.411443 -95.82 0.411443 -95.82 0.805663 135.76
6.51570750 0.809899 179.46 0.395972 -96.08 0.395972 -96.08 0.811792 134.75
6.51570800 0.815840 178.42 0.380234 -96.28 0.380234 -96.28 0.817745 133.73
6.51570850 0.821592 177.36 0.364249 -96.41 0.364249 -96.41 0.823508 132.70
6.51570900 0.827140 176.29 0.348041 -96.45 0.348041 -96.45 0.829067 131.65
6.51570950 0.832468 175.21 0.331636 -96.40 0.331636 -96.40 0.834405 130.60
6.51571000 0.837561 174.12 0.315069 -96.22 0.315069 -96.22 0.839509 129.52
6.51571050 0.842407 173.01 0.298379 -95.90 0.298379 -95.90 0.844363 128.44
6.51571100 0.846989 171.90 0.281616 -95.41 0.281616 -95.41 0.848954 127.35
6.51571150 0.851296 170.77 0.264837 -94.71 0.264837 -94.71 0.853268 126.24
6.51571200 0.855312 169.63 0.248117 -93.75 0.248117 -93.75 0.857292 125.13
6.51571250 0.859027 168.49 0.231545 -92.48 0.231545 -92.48 0.861014 124.00
6.51571300 0.862428 167.33 0.215235 -90.84 0.215235 -90.84 0.864421 122.87
6.51571350 0.865505 166.17 0.199332 -88.73 0.199332 -88.73 0.867502 121.73
6.51571400 0.868247 165.00 0.184019 -86.05 0.184019 -86.05 0.870249 120.59
6.51571450 0.870646 163.83 0.169535 -82.68 0.169535 -82.68 0.872651 119.44
6.51571500 0.872694 162.65 0.156184 -78.48 0.156184 -78.48 0.874701 118.28
6.51571550 0.874385 161.47 0.144348 -73.33 0.144348 -73.33 0.876394 117.12
6.51571600 0.875713 160.28 0.134486 -67.14 0.134486 -67.14 0.877723 115.96
6.51571650 0.876674 159.10 0.127105 -59.92 0.127105 -59.92 0.878684 114.79
6.51571700 0.877267 157.91 0.122685 -51.89 0.122685 -51.89 0.879276 113.63
6.51571750 0.877485 156.72 0.121569 -43.44 0.121569 -43.44 0.879493 112.46
!< P1 F=6.5157175 Eeff=(5.67085949 -5.1697e-6) Z0=(51.6116161 2.3525e-5) R=0.007414 C=0.00301427 
!< P2 F=6.5157175 Eeff=(5.67085949 -5.1697e-6) Z0=(51.6116161 2.3525e-5) R=0.007414 C=0.00301427 
6.51571800 0.877340 155.53 0.123833 -35.09 0.123833 -35.09 0.879345 111.30
6.51571850 0.876825 154.35 0.129286 -27.32 0.129286 -27.32 0.878827 110.14
6.51571900 0.875946 153.17 0.137516 -20.47 0.137516 -20.47 0.877944 108.98
6.51571950 0.874706 151.99 0.148016 -14.66 0.148016 -14.66 0.876699 107.82
6.51572000 0.873112 150.82 0.160290 -9.867 0.160290 -9.867 0.875100 106.67
6.51572050 0.871171 149.65 0.173903 -5.981 0.173903 -5.981 0.873152 105.53
6.51572100 0.868890 148.50 0.188503 -2.870 0.188503 -2.870 0.870863 104.39
6.51572150 0.866278 147.34 0.203812 -0.401 0.203812 -0.401 0.868244 103.26
6.51572200 0.863347 146.20 0.219616 1.5414 0.219616 1.5414 0.865304 102.14
6.51572250 0.860107 145.07 0.235745 3.0545 0.235745 3.0545 0.862055 101.03
6.51572300 0.856570 143.94 0.252072 4.2176 0.252072 4.2176 0.858507 99.927
6.51572350 0.852748 142.83 0.268492 5.0944 0.268492 5.0944 0.854675 98.835
6.51572400 0.848655 141.73 0.284925 5.7364 0.284925 5.7364 0.850570 97.756
6.51572450 0.844304 140.64 0.301305 6.1846 0.301305 6.1846 0.846208 96.688
6.51572500 0.839709 139.56 0.317579 6.4724 0.317579 6.4724 0.841601 95.632
6.51572550 0.834885 138.50 0.333704 6.6268 0.333704 6.6268 0.836763 94.590
6.51572600 0.829845 137.45 0.349644 6.6698 0.349644 6.6698 0.831711 93.561
6.51572650 0.824605 136.41 0.365371 6.6197 0.365371 6.6197 0.826457 92.546
6.51572700 0.819179 135.39 0.380860 6.4914 0.380860 6.4914 0.821016 91.545
6.51572750 0.813581 134.38 0.396091 6.2973 0.396091 6.2973 0.815404 90.558
6.51572800 0.807825 133.39 0.411049 6.0481 0.411049 6.0481 0.809633 89.587
6.51572850 0.801925 132.41 0.425720 5.7524 0.425720 5.7524 0.803719 88.630
6.51572900 0.795896 131.45 0.440095 5.4178 0.440095 5.4178 0.797674 87.689
6.51572950 0.789750 130.50 0.454165 5.0505 0.454165 5.0505 0.791512 86.763
6.51573000 0.783500 129.57 0.467923 4.6561 0.467923 4.6561 0.785247 85.853
6.51573050 0.777159 128.65 0.481367 4.2391 0.481367 4.2391 0.778890 84.959
6.51573100 0.770738 127.75 0.494494 3.8035 0.494494 3.8035 0.772453 84.080
6.51573150 0.764250 126.87 0.507302 3.3527 0.507302 3.3527 0.765949 83.216
6.51573200 0.757705 126.00 0.519790 2.8899 0.519790 2.8899 0.759387 82.369
6.51573250 0.751114 125.14 0.531961 2.4174 0.531961 2.4174 0.752780 81.537
6.51573300 0.744486 124.30 0.543816 1.9376 0.543816 1.9376 0.746136 80.720
6.51573350 0.737832 123.48 0.555357 1.4525 0.555357 1.4525 0.739465 79.919
6.51573400 0.731160 122.68 0.566589 0.9636 0.566589 0.9636 0.732776 79.134
6.51573450 0.724477 121.88 0.577515 0.4725 0.577515 0.4725 0.726077 78.363
6.51573500 0.717794 121.11 0.588140 -0.020 0.588140 -0.020 0.719377 77.608
6.51573550 0.711115 120.35 0.598468 -0.511 0.598468 -0.511 0.712682 76.867
6.51573600 0.704449 119.60 0.608505 -1.002 0.608505 -1.002 0.706000 76.142
6.51573650 0.697801 118.87 0.618258 -1.491 0.618258 -1.491 0.699336 75.431
6.51573700 0.691178 118.15 0.627731 -1.977 0.627731 -1.977 0.692697 74.734
6.51573750 0.684585 117.44 0.636931 -2.460 0.636931 -2.460 0.686088 74.051
6.51573800 0.678027 116.75 0.645864 -2.939 0.645864 -2.939 0.679514 73.382
6.51573850 0.671508 116.08 0.654537 -3.413 0.654537 -3.413 0.672979 72.727
6.51573900 0.665033 115.41 0.662957 -3.883 0.662957 -3.883 0.666488 72.085
6.51573950 0.658605 114.76 0.671128 -4.348 0.671128 -4.348 0.660045 71.456
6.51574000 0.652228 114.13 0.679060 -4.807 0.679060 -4.807 0.653652 70.841
6.51574050 0.645904 113.50 0.686757 -5.261 0.686757 -5.261 0.647313 70.238
6.51574100 0.639638 112.89 0.694226 -5.709 0.694226 -5.709 0.641032 69.647
6.51574150 0.633430 112.29 0.701474 -6.151 0.701474 -6.151 0.634809 69.069
6.51574200 0.627284 111.71 0.708507 -6.586 0.708507 -6.586 0.628648 68.502
6.51574250 0.621201 111.13 0.715332 -7.016 0.715332 -7.016 0.622550 67.948
6.51574300 0.615183 110.57 0.721955 -7.440 0.721955 -7.440 0.616518 67.405
6.51574350 0.609231 110.01 0.728381 -7.857 0.728381 -7.857 0.610551 66.873
6.51574400 0.603346 109.47 0.734618 -8.268 0.734618 -8.268 0.604653 66.352
6.51574450 0.597531 108.94 0.740670 -8.672 0.740670 -8.672 0.598823 65.841
6.51574500 0.591784 108.42 0.746544 -9.070 0.746544 -9.070 0.593063 65.341
6.51574550 0.586108 107.91 0.752244 -9.462 0.752244 -9.462 0.587373 64.852
6.51574600 0.580502 107.41 0.757778 -9.848 0.757778 -9.848 0.581754 64.372
6.51574650 0.574968 106.92 0.763149 -10.23 0.763149 -10.23 0.576207 63.903
6.51574700 0.569504 106.44 0.768363 -10.60 0.768363 -10.60 0.570730 63.443
6.51574750 0.564112 105.97 0.773426 -10.97 0.773426 -10.97 0.565325 62.992
6.51574800 0.558792 105.50 0.778341 -11.33 0.778341 -11.33 0.559992 62.550
6.51574850 0.553543 105.05 0.783114 -11.68 0.783114 -11.68 0.554730 62.117
6.51574900 0.548364 104.60 0.787750 -12.03 0.787750 -12.03 0.549540 61.693
6.51574950 0.543257 104.17 0.792253 -12.37 0.792253 -12.37 0.544420 61.278
6.51575000 0.538220 103.74 0.796627 -12.71 0.796627 -12.71 0.539371 60.871
6.51575050 0.533253 103.32 0.800876 -13.04 0.800876 -13.04 0.534393 60.472
6.51575100 0.528356 102.91 0.805005 -13.37 0.805005 -13.37 0.529484 60.080
6.51575150 0.523527 102.50 0.809018 -13.69 0.809018 -13.69 0.524644 59.697
6.51575200 0.518768 102.11 0.812918 -14.00 0.812918 -14.00 0.519873 59.321
6.51575250 0.514075 101.72 0.816708 -14.31 0.816708 -14.31 0.515170 58.952
6.51575300 0.509450 101.34 0.820394 -14.62 0.820394 -14.62 0.510534 58.591
6.51575350 0.504892 100.96 0.823977 -14.92 0.823977 -14.92 0.505964 58.236
6.51575400 0.500399 100.59 0.827462 -15.21 0.827462 -15.21 0.501461 57.889
6.51575450 0.495971 100.23 0.830851 -15.50 0.830851 -15.50 0.497022 57.548
6.51575500 0.491607 99.877 0.834148 -15.79 0.834148 -15.79 0.492648 57.213
6.51575550 0.487307 99.529 0.837355 -16.07 0.837355 -16.07 0.488337 56.885
6.51575600 0.483068 99.186 0.840476 -16.34 0.840476 -16.34 0.484089 56.563
6.51575650 0.478892 98.850 0.843514 -16.61 0.843514 -16.61 0.479903 56.247
6.51575700 0.474776 98.520 0.846470 -16.88 0.846470 -16.88 0.475777 55.938
6.51575750 0.470720 98.195 0.849348 -17.14 0.849348 -17.14 0.471712 55.633
6.51575800 0.466724 97.876 0.852150 -17.39 0.852150 -17.39 0.467706 55.335