! Sonnet Data File
! From: em Version : 14.52
! From Project: w1
! Data is De-embedded 
! Data File Written: 07/15/2018 05:01:05
!< HDATE 07/14/2018 00:02:31
!< MDATE 07/14/2018 22:16:44
# GHZ S MA R 50.00000
6.15000000 0.064397 43.573 0.997924 -41.99 0.997924 -41.99 0.064397 52.454
!< P1 F=6.15 Eeff=(5.67099563 -5.1685e-6) Z0=(56.6683189 2.58286e-5) R=0.00716771 C=0.00330395 
!< P2 F=6.15 Eeff=(5.67082264 -5.1692e-6) Z0=(55.8848227 2.5474e-5) R=0.00799574 C=0.00295944 
6.15500000 0.064410 43.516 0.997923 -42.02 0.997923 -42.02 0.064410 52.438
6.16000000 0.064420 43.459 0.997923 -42.06 0.997923 -42.06 0.064420 52.423
6.16500000 0.064427 43.400 0.997922 -42.10 0.997922 -42.10 0.064427 52.410
6.17000000 0.064432 43.339 0.997922 -42.13 0.997922 -42.13 0.064432 52.397
6.17500000 0.064434 43.276 0.997922 -42.17 0.997922 -42.17 0.064434 52.386
6.18000000 0.064431 43.211 0.997922 -42.21 0.997922 -42.21 0.064432 52.377
6.18500000 0.064425 43.143 0.997922 -42.24 0.997922 -42.24 0.064425 52.370
6.19000000 0.064414 43.073 0.997923 -42.28 0.997923 -42.28 0.064414 52.365
6.19500000 0.064398 42.999 0.997924 -42.32 0.997924 -42.32 0.064398 52.362
6.20000000 0.064376 42.922 0.997925 -42.36 0.997925 -42.36 0.064376 52.363
6.20500000 0.064346 42.840 0.997927 -42.40 0.997927 -42.40 0.064346 52.367
6.21000000 0.064308 42.753 0.997930 -42.44 0.997930 -42.44 0.064309 52.374
6.21500000 0.064261 42.660 0.997933 -42.48 0.997933 -42.48 0.064261 52.387
6.22000000 0.064202 42.559 0.997936 -42.52 0.997936 -42.52 0.064202 52.406
6.22500000 0.064128 42.450 0.997941 -42.56 0.997941 -42.56 0.064129 52.431
6.23000000 0.064038 42.330 0.997947 -42.60 0.997947 -42.60 0.064038 52.465
6.23500000 0.063927 42.197 0.997954 -42.65 0.997954 -42.65 0.063927 52.509
6.24000000 0.063789 42.046 0.997963 -42.69 0.997963 -42.69 0.063789 52.567
6.24500000 0.063617 41.874 0.997974 -42.74 0.997974 -42.74 0.063618 52.642
6.25000000 0.063402 41.673 0.997987 -42.79 0.997987 -42.79 0.063402 52.739
6.25500000 0.063127 41.433 0.998005 -42.85 0.998005 -42.85 0.063128 52.868
6.26000000 0.062771 41.137 0.998027 -42.91 0.998027 -42.91 0.062771 53.041
6.26500000 0.062297 40.760 0.998057 -42.98 0.998057 -42.98 0.062297 53.280
6.27000000 0.061644 40.256 0.998097 -43.06 0.998097 -43.06 0.061645 53.620
6.27500000 0.060701 39.538 0.998155 -43.16 0.998155 -43.16 0.060702 54.135
6.28000000 0.059241 38.414 0.998242 -43.30 0.998242 -43.30 0.059243 54.982
6.28500000 0.056717 36.367 0.998387 -43.52 0.998387 -43.52 0.056721 56.600
6.29000000 0.051433 31.374 0.998670 -43.95 0.998670 -43.95 0.051442 60.745
!< P1 F=6.29 Eeff=(5.67098702 -5.1694e-6) Z0=(56.6682132 2.58286e-5) R=0.00700879 C=0.00330395 
!< P2 F=6.29 Eeff=(5.67081304 -5.1694e-6) Z0=(55.8847247 2.54785e-5) R=0.00781737 C=0.00295944 
6.29020000 0.051102 31.019 0.998686 -43.97 0.998686 -43.97 0.051111 61.047
6.29040000 0.050756 30.642 0.998704 -44.00 0.998704 -44.00 0.050765 61.369
6.29060000 0.050395 30.241 0.998722 -44.03 0.998722 -44.03 0.050405 61.712
6.29080000 0.050017 29.813 0.998740 -44.06 0.998740 -44.06 0.050027 62.078
6.29100000 0.049622 29.357 0.998759 -44.09 0.998759 -44.09 0.049633 62.470
6.29120000 0.049208 28.868 0.998779 -44.13 0.998779 -44.13 0.049220 62.891
6.29140000 0.048775 28.344 0.998800 -44.16 0.998800 -44.16 0.048788 63.344
6.29160000 0.048321 27.781 0.998822 -44.20 0.998822 -44.20 0.048334 63.833
6.29180000 0.047844 27.174 0.998844 -44.24 0.998844 -44.24 0.047858 64.361
6.29200000 0.047343 26.517 0.998867 -44.28 0.998867 -44.28 0.047359 64.934
6.29220000 0.046817 25.805 0.998891 -44.33 0.998891 -44.33 0.046834 65.557
6.29240000 0.046264 25.031 0.998917 -44.38 0.998917 -44.38 0.046282 66.237
6.29260000 0.045682 24.185 0.998942 -44.43 0.998942 -44.43 0.045701 66.982
6.29280000 0.045070 23.259 0.998969 -44.48 0.998969 -44.48 0.045090 67.801
6.29300000 0.044425 22.239 0.998997 -44.54 0.998997 -44.54 0.044448 68.706
6.29320000 0.043747 21.113 0.999026 -44.60 0.999026 -44.60 0.043772 69.708
6.29340000 0.043033 19.863 0.999056 -44.67 0.999056 -44.67 0.043061 70.826
6.29360000 0.042284 18.469 0.999086 -44.74 0.999086 -44.74 0.042314 72.078
6.29380000 0.041498 16.905 0.999118 -44.82 0.999118 -44.82 0.041531 73.487
6.29400000 0.040675 15.141 0.999149 -44.91 0.999149 -44.91 0.040712 75.083
6.29420000 0.039819 13.139 0.999182 -45.00 0.999182 -45.00 0.039860 76.902
6.29440000 0.038934 10.851 0.999214 -45.10 0.999214 -45.10 0.038980 78.989
6.29460000 0.038029 8.2213 0.999246 -45.21 0.999246 -45.21 0.038081 81.398
6.29480000 0.037117 5.1765 0.999277 -45.33 0.999277 -45.33 0.037176 84.197
6.29500000 0.036222 1.6297 0.999306 -45.47 0.999306 -45.47 0.036289 87.470
6.29520000 0.035380 -2.524 0.999332 -45.62 0.999332 -45.62 0.035457 91.316
6.29540000 0.034648 -7.405 0.999352 -45.79 0.999352 -45.79 0.034737 95.848
6.29560000 0.034112 -13.14 0.999364 -45.99 0.999364 -45.99 0.034215 101.18
6.29580000 0.033900 -19.84 0.999364 -46.21 0.999364 -46.21 0.034018 107.42
6.29600000 0.034195 -27.57 0.999344 -46.47 0.999344 -46.47 0.034331 114.61
6.29620000 0.035251 -36.26 0.999295 -46.77 0.999295 -46.77 0.035406 122.66
6.29640000 0.037399 -45.70 0.999201 -47.12 0.999201 -47.12 0.037574 131.33
6.29660000 0.041054 -55.49 0.999036 -47.54 0.999036 -47.54 0.041246 140.22
6.29680000 0.046726 -65.18 0.998759 -48.06 0.998759 -48.06 0.046936 148.82
6.29700000 0.055084 -74.38 0.998293 -48.71 0.998293 -48.71 0.055308 156.66
6.29720000 0.067089 -82.87 0.997500 -49.54 0.997500 -49.54 0.067330 163.44
6.29740000 0.084301 -90.66 0.996104 -50.65 0.996104 -50.65 0.084562 168.96
6.29760000 0.109508 -97.95 0.993501 -52.21 0.993501 -52.21 0.109797 173.07
6.29780000 0.148213 -105.2 0.988197 -54.53 0.988197 -54.53 0.148545 175.56
6.29800000 0.213019 -113.2 0.975701 -58.38 0.975701 -58.38 0.213425 175.78
!< P1 F=6.298 Eeff=(5.67098706 -5.1695e-6) Z0=(56.6682056 2.58286e-5) R=0.0070014 C=0.00330394 
!< P2 F=6.298 Eeff=(5.67081271 -5.1695e-6) Z0=(55.8847151 2.54785e-5) R=0.00780732 C=0.00295943 
6.29800500 0.215174 -113.5 0.975206 -58.51 0.975206 -58.51 0.215582 175.74
6.29801000 0.217363 -113.7 0.974698 -58.64 0.974698 -58.64 0.217773 175.70
6.29801500 0.219587 -113.9 0.974176 -58.77 0.974176 -58.77 0.220000 175.66
6.29802000 0.221847 -114.1 0.973640 -58.90 0.973640 -58.90 0.222263 175.62
6.29802500 0.224145 -114.4 0.973090 -59.04 0.973090 -59.04 0.224563 175.57
6.29803000 0.226480 -114.6 0.972524 -59.18 0.972524 -59.18 0.226901 175.52
6.29803500 0.228854 -114.8 0.971943 -59.32 0.971943 -59.32 0.229278 175.47
6.29804000 0.231268 -115.1 0.971345 -59.47 0.971345 -59.47 0.231694 175.42
6.29804500 0.233722 -115.3 0.970731 -59.61 0.970731 -59.61 0.234151 175.36
6.29805000 0.236217 -115.6 0.970099 -59.76 0.970099 -59.76 0.236650 175.30
6.29805500 0.238755 -115.8 0.969449 -59.91 0.969449 -59.91 0.239191 175.24
6.29806000 0.241337 -116.1 0.968781 -60.07 0.968781 -60.07 0.241775 175.17
6.29806500 0.243963 -116.3 0.968093 -60.22 0.968093 -60.22 0.244405 175.10
6.29807000 0.246635 -116.6 0.967386 -60.38 0.967386 -60.38 0.247079 175.03
6.29807500 0.249354 -116.8 0.966657 -60.54 0.966657 -60.54 0.249801 174.95
6.29808000 0.252120 -117.1 0.965907 -60.71 0.965907 -60.71 0.252571 174.87
6.29808500 0.254936 -117.3 0.965135 -60.88 0.965135 -60.88 0.255390 174.79
6.29809000 0.257802 -117.6 0.964339 -61.05 0.964339 -61.05 0.258259 174.71
6.29809500 0.260719 -117.9 0.963520 -61.22 0.963520 -61.22 0.261179 174.62
6.29810000 0.263689 -118.1 0.962675 -61.40 0.962675 -61.40 0.264153 174.52
6.29810500 0.266714 -118.4 0.961805 -61.58 0.961805 -61.58 0.267181 174.42
6.29811000 0.269793 -118.7 0.960908 -61.77 0.960908 -61.77 0.270264 174.32
6.29811500 0.272930 -119.0 0.959982 -61.96 0.959982 -61.96 0.273405 174.22
6.29812000 0.276126 -119.2 0.959028 -62.15 0.959028 -62.15 0.276604 174.11
6.29812500 0.279381 -119.5 0.958043 -62.34 0.958043 -62.34 0.279863 174.00
6.29813000 0.282698 -119.8 0.957027 -62.54 0.957027 -62.54 0.283184 173.88
6.29813500 0.286078 -120.1 0.955979 -62.75 0.955979 -62.75 0.286567 173.76
6.29814000 0.289522 -120.4 0.954896 -62.96 0.954896 -62.96 0.290016 173.63
6.29814500 0.293033 -120.7 0.953778 -63.17 0.953778 -63.17 0.293531 173.50
6.29815000 0.296613 -121.0 0.952623 -63.38 0.952623 -63.38 0.297114 173.36
6.29815500 0.300262 -121.3 0.951429 -63.60 0.951429 -63.60 0.300768 173.22
6.29816000 0.303983 -121.6 0.950196 -63.83 0.950196 -63.83 0.304493 173.08
6.29816500 0.307778 -122.0 0.948921 -64.06 0.948921 -64.06 0.308293 172.93
6.29817000 0.311649 -122.3 0.947603 -64.29 0.947603 -64.29 0.312168 172.77
6.29817500 0.315597 -122.6 0.946239 -64.53 0.946239 -64.53 0.316121 172.61
6.29818000 0.319626 -122.9 0.944828 -64.78 0.944828 -64.78 0.320154 172.44
6.29818500 0.323737 -123.3 0.943368 -65.03 0.943368 -65.03 0.324270 172.27
6.29819000 0.327932 -123.6 0.941856 -65.29 0.941856 -65.29 0.328470 172.09
6.29819500 0.332214 -124.0 0.940291 -65.55 0.940291 -65.55 0.332757 171.90
6.29820000 0.336585 -124.3 0.938669 -65.81 0.938669 -65.81 0.337133 171.71
6.29820500 0.341048 -124.7 0.936989 -66.09 0.936989 -66.09 0.341600 171.51
6.29821000 0.345604 -125.0 0.935247 -66.37 0.935247 -66.37 0.346162 171.31
6.29821500 0.350258 -125.4 0.933442 -66.65 0.933442 -66.65 0.350821 171.10
6.29822000 0.355010 -125.8 0.931569 -66.95 0.931569 -66.95 0.355579 170.88
6.29822500 0.359865 -126.2 0.929627 -67.25 0.929627 -67.25 0.360440 170.65
6.29823000 0.364825 -126.6 0.927611 -67.55 0.927611 -67.55 0.365405 170.42
6.29823500 0.369893 -127.0 0.925518 -67.87 0.925518 -67.87 0.370479 170.18
6.29824000 0.375072 -127.4 0.923345 -68.19 0.923345 -68.19 0.375664 169.93
6.29824500 0.380365 -127.8 0.921087 -68.52 0.921087 -68.52 0.380963 169.67
6.29825000 0.385775 -128.2 0.918742 -68.85 0.918742 -68.85 0.386379 169.41
6.29825500 0.391306 -128.6 0.916303 -69.20 0.916303 -69.20 0.391916 169.13
6.29826000 0.396960 -129.1 0.913768 -69.55 0.913768 -69.55 0.397576 168.85
6.29826500 0.402741 -129.5 0.911131 -69.92 0.911131 -69.92 0.403365 168.55
6.29827000 0.408654 -130.0 0.908387 -70.29 0.908387 -70.29 0.409283 168.25
6.29827500 0.414700 -130.5 0.905531 -70.67 0.905531 -70.67 0.415337 167.94
6.29828000 0.420884 -130.9 0.902557 -71.06 0.902557 -71.06 0.421528 167.61
6.29828500 0.427210 -131.4 0.899459 -71.46 0.899459 -71.46 0.427861 167.28
6.29829000 0.433681 -131.9 0.896231 -71.88 0.896231 -71.88 0.434339 166.93
6.29829500 0.440301 -132.4 0.892867 -72.30 0.892867 -72.30 0.440967 166.58
6.29830000 0.447075 -132.9 0.889359 -72.73 0.889359 -72.73 0.447748 166.21
6.29830500 0.454005 -133.5 0.885700 -73.18 0.885700 -73.18 0.454686 165.82
6.29831000 0.461096 -134.0 0.881882 -73.64 0.881882 -73.64 0.461785 165.43
6.29831500 0.468352 -134.6 0.877897 -74.11 0.877897 -74.11 0.469049 165.02
6.29832000 0.475777 -135.1 0.873736 -74.59 0.873736 -74.59 0.476483 164.60
6.29832500 0.483374 -135.7 0.869390 -75.09 0.869390 -75.09 0.484089 164.17
6.29833000 0.491148 -136.3 0.864848 -75.60 0.864848 -75.60 0.491872 163.72
6.29833500 0.499103 -136.9 0.860102 -76.13 0.860102 -76.13 0.499835 163.25
6.29834000 0.507242 -137.6 0.855139 -76.67 0.855139 -76.67 0.507983 162.77
6.29834500 0.515569 -138.2 0.849948 -77.23 0.849948 -77.23 0.516319 162.27
6.29835000 0.524087 -138.9 0.844517 -77.80 0.844517 -77.80 0.524847 161.76
6.29835500 0.532801 -139.5 0.838833 -78.39 0.838833 -78.39 0.533570 161.22
6.29836000 0.541712 -140.2 0.832883 -79.00 0.832883 -79.00 0.542491 160.67
6.29836500 0.550824 -141.0 0.826651 -79.62 0.826651 -79.62 0.551613 160.10
6.29837000 0.560139 -141.7 0.820124 -80.26 0.820124 -80.26 0.560939 159.51
6.29837500 0.569659 -142.4 0.813286 -80.93 0.813286 -80.93 0.570470 158.91
6.29838000 0.579386 -143.2 0.806118 -81.61 0.806118 -81.61 0.580208 158.27
6.29838500 0.589322 -144.0 0.798605 -82.31 0.798605 -82.31 0.590154 157.62
6.29839000 0.599466 -144.8 0.790728 -83.04 0.790728 -83.04 0.600309 156.95
6.29839500 0.609818 -145.7 0.782468 -83.78 0.782468 -83.78 0.610673 156.25
6.29840000 0.620378 -146.5 0.773804 -84.55 0.773804 -84.55 0.621244 155.53
6.29840500 0.631143 -147.4 0.764717 -85.34 0.764717 -85.34 0.632021 154.78
6.29841000 0.642110 -148.3 0.755183 -86.16 0.755183 -86.16 0.643000 154.01
6.29841500 0.653275 -149.2 0.745182 -87.00 0.745182 -87.00 0.654177 153.21
6.29842000 0.664633 -150.2 0.734689 -87.87 0.734689 -87.87 0.665547 152.38
6.29842500 0.676176 -151.2 0.723681 -88.76 0.723681 -88.76 0.677102 151.53
6.29843000 0.687896 -152.2 0.712134 -89.68 0.712134 -89.68 0.688835 150.64
6.29843500 0.699782 -153.3 0.700022 -90.63 0.700022 -90.63 0.700733 149.73
6.29844000 0.711822 -154.4 0.687321 -91.60 0.687321 -91.60 0.712786 148.79
6.29844500 0.724001 -155.5 0.674004 -92.61 0.674004 -92.61 0.724978 147.81
6.29845000 0.736302 -156.6 0.660048 -93.64 0.660048 -93.64 0.737292 146.80
6.29845500 0.751181 -158.0 0.642454 -94.92 0.642454 -94.92 0.752186 145.55
!< P1 F=6.298455 Eeff=(5.67098686 -5.168e-6) Z0=(56.6682027 2.58286e-5) R=0.00700126 C=0.00330394 
!< P2 F=6.298455 Eeff=(5.6708128 -5.1693e-6) Z0=(55.8847137 2.5474e-5) R=0.00780373 C=0.00295943 
6.29845600 0.753663 -158.3 0.639435 -95.13 0.639435 -95.13 0.754670 145.34
6.29845700 0.756148 -158.5 0.636388 -95.35 0.636388 -95.35 0.757158 145.13
6.29845800 0.758635 -158.7 0.633313 -95.57 0.633313 -95.57 0.759648 144.91
6.29845900 0.761125 -159.0 0.630211 -95.79 0.630211 -95.79 0.762140 144.70
6.29846000 0.763617 -159.2 0.627079 -96.01 0.627079 -96.01 0.764635 144.48
6.29846100 0.766111 -159.5 0.623920 -96.23 0.623920 -96.23 0.767132 144.26
6.29846200 0.768607 -159.7 0.620732 -96.45 0.620732 -96.45 0.769630 144.04
6.29846300 0.771105 -160.0 0.617515 -96.68 0.617515 -96.68 0.772130 143.82
6.29846400 0.773603 -160.2 0.614268 -96.90 0.614268 -96.90 0.774631 143.59
6.29846500 0.776103 -160.5 0.610993 -97.13 0.610993 -97.13 0.777134 143.37
6.29846600 0.778604 -160.7 0.607689 -97.36 0.607689 -97.36 0.779637 143.14
6.29846700 0.781105 -161.0 0.604355 -97.59 0.604355 -97.59 0.782141 142.92
6.29846800 0.783607 -161.2 0.600991 -97.82 0.600991 -97.82 0.784646 142.69
6.29846900 0.786109 -161.5 0.597597 -98.05 0.597597 -98.05 0.787150 142.46
6.29847000 0.788611 -161.7 0.594174 -98.28 0.594174 -98.28 0.789654 142.22
6.29847100 0.791112 -162.0 0.590720 -98.51 0.590720 -98.51 0.792158 141.99
6.29847200 0.793613 -162.3 0.587236 -98.75 0.587236 -98.75 0.794662 141.76
6.29847300 0.796113 -162.5 0.583721 -98.98 0.583721 -98.98 0.797164 141.52
6.29847400 0.798612 -162.8 0.580176 -99.22 0.580176 -99.22 0.799665 141.29
6.29847500 0.801109 -163.1 0.576600 -99.46 0.576600 -99.46 0.802165 141.05
6.29847600 0.803605 -163.3 0.572994 -99.70 0.572994 -99.70 0.804663 140.81
6.29847700 0.806098 -163.6 0.569356 -99.94 0.569356 -99.94 0.807159 140.57
6.29847800 0.808589 -163.9 0.565687 -100.2 0.565687 -100.2 0.809653 140.32
6.29847900 0.811078 -164.1 0.561987 -100.4 0.561987 -100.4 0.812144 140.08
6.29848000 0.813563 -164.4 0.558255 -100.7 0.558255 -100.7 0.814632 139.83
6.29848100 0.816045 -164.7 0.554492 -100.9 0.554492 -100.9 0.817116 139.59
6.29848200 0.818524 -164.9 0.550697 -101.2 0.550697 -101.2 0.819598 139.34
6.29848300 0.820999 -165.2 0.546870 -101.4 0.546870 -101.4 0.822075 139.09
6.29848400 0.823469 -165.5 0.543012 -101.7 0.543012 -101.7 0.824548 138.84
6.29848500 0.825936 -165.8 0.539122 -101.9 0.539122 -101.9 0.827016 138.59
6.29848600 0.828397 -166.1 0.535199 -102.2 0.535199 -102.2 0.829480 138.33
6.29848700 0.830853 -166.3 0.531245 -102.4 0.531245 -102.4 0.831938 138.08
6.29848800 0.833303 -166.6 0.527258 -102.7 0.527258 -102.7 0.834391 137.82
6.29848900 0.835748 -166.9 0.523239 -102.9 0.523239 -102.9 0.836838 137.56
6.29849000 0.838186 -167.2 0.519188 -103.2 0.519188 -103.2 0.839279 137.30
6.29849100 0.840617 -167.5 0.515104 -103.4 0.515104 -103.4 0.841713 137.04
6.29849200 0.843042 -167.8 0.510988 -103.7 0.510988 -103.7 0.844140 136.78
6.29849300 0.845459 -168.1 0.506839 -103.9 0.506839 -103.9 0.846559 136.52
6.29849400 0.847869 -168.3 0.502658 -104.2 0.502658 -104.2 0.848971 136.25
6.29849500 0.850270 -168.6 0.498444 -104.5 0.498444 -104.5 0.851375 135.98
6.29849600 0.852663 -168.9 0.494197 -104.7 0.494197 -104.7 0.853770 135.72
6.29849700 0.855047 -169.2 0.489918 -105.0 0.489918 -105.0 0.856156 135.45
6.29849800 0.857422 -169.5 0.485607 -105.2 0.485607 -105.2 0.858533 135.18
6.29849900 0.859787 -169.8 0.481262 -105.5 0.481262 -105.5 0.860901 134.91
6.29850000 0.862142 -170.1 0.476885 -105.8 0.476885 -105.8 0.863258 134.63
6.29850100 0.864487 -170.4 0.472476 -106.0 0.472476 -106.0 0.865605 134.36
6.29850200 0.866820 -170.7 0.468033 -106.3 0.468033 -106.3 0.867941 134.08
6.29850300 0.869143 -171.0 0.463558 -106.6 0.463558 -106.6 0.870265 133.80
6.29850400 0.871453 -171.3 0.459051 -106.8 0.459051 -106.8 0.872578 133.53
6.29850500 0.873752 -171.6 0.454511 -107.1 0.454511 -107.1 0.874879 133.25
6.29850600 0.876038 -171.9 0.449939 -107.4 0.449939 -107.4 0.877167 132.96
6.29850700 0.878311 -172.2 0.445334 -107.6 0.445334 -107.6 0.879443 132.68
6.29850800 0.880571 -172.6 0.440697 -107.9 0.440697 -107.9 0.881704 132.40
6.29850900 0.882817 -172.9 0.436028 -108.2 0.436028 -108.2 0.883952 132.11
6.29851000 0.885049 -173.2 0.431327 -108.5 0.431327 -108.5 0.886186 131.83
6.29851100 0.887266 -173.5 0.426594 -108.7 0.426594 -108.7 0.888405 131.54
6.29851200 0.889468 -173.8 0.421829 -109.0 0.421829 -109.0 0.890609 131.25
6.29851300 0.891654 -174.1 0.417032 -109.3 0.417032 -109.3 0.892798 130.96
6.29851400 0.893825 -174.4 0.412203 -109.5 0.412203 -109.5 0.894970 130.67
6.29851500 0.895979 -174.8 0.407343 -109.8 0.407343 -109.8 0.897126 130.37
6.29851600 0.898116 -175.1 0.402452 -110.1 0.402452 -110.1 0.899265 130.08
6.29851700 0.900236 -175.4 0.397529 -110.4 0.397529 -110.4 0.901387 129.78
6.29851800 0.902338 -175.7 0.392576 -110.6 0.392576 -110.6 0.903491 129.49
6.29851900 0.904422 -176.0 0.387591 -110.9 0.387591 -110.9 0.905577 129.19
6.29852000 0.906487 -176.4 0.382576 -111.2 0.382576 -111.2 0.907644 128.89
6.29852100 0.908534 -176.7 0.377531 -111.5 0.377531 -111.5 0.909692 128.59
6.29852200 0.910560 -177.0 0.372456 -111.7 0.372456 -111.7 0.911720 128.29
6.29852300 0.912567 -177.3 0.367350 -112.0 0.367350 -112.0 0.913729 127.98
6.29852400 0.914553 -177.7 0.362215 -112.3 0.362215 -112.3 0.915717 127.68
6.29852500 0.916519 -178.0 0.357051 -112.6 0.357051 -112.6 0.917684 127.38
6.29852600 0.918463 -178.3 0.351857 -112.8 0.351857 -112.8 0.919630 127.07
6.29852700 0.920385 -178.7 0.346634 -113.1 0.346634 -113.1 0.921553 126.76
6.29852800 0.922285 -179.0 0.341383 -113.4 0.341383 -113.4 0.923455 126.45
6.29852900 0.924163 -179.3 0.336104 -113.7 0.336104 -113.7 0.925334 126.14
6.29853000 0.926017 -179.7 0.330797 -113.9 0.330797 -113.9 0.927190 125.83
6.29853100 0.927848 179.99 0.325462 -114.2 0.325462 -114.2 0.929022 125.52
6.29853200 0.929655 179.65 0.320100 -114.5 0.320100 -114.5 0.930831 125.21
6.29853300 0.931438 179.31 0.314710 -114.7 0.314710 -114.7 0.932615 124.89
6.29853400 0.933195 178.97 0.309295 -115.0 0.309295 -115.0 0.934374 124.58
6.29853500 0.934928 178.63 0.303853 -115.3 0.303853 -115.3 0.936108 124.26
6.29853600 0.936635 178.29 0.298385 -115.5 0.298385 -115.5 0.937816 123.95
6.29853700 0.938315 177.94 0.292892 -115.8 0.292892 -115.8 0.939498 123.63
6.29853800 0.939969 177.60 0.287375 -116.1 0.287375 -116.1 0.941153 123.31
6.29853900 0.941597 177.25 0.281832 -116.3 0.281832 -116.3 0.942782 122.99
6.29854000 0.943197 176.91 0.276266 -116.6 0.276266 -116.6 0.944383 122.67
6.29854100 0.944769 176.56 0.270676 -116.8 0.270676 -116.8 0.945956 122.35
6.29854200 0.946313 176.22 0.265062 -117.1 0.265062 -117.1 0.947502 122.03
6.29854300 0.947829 175.87 0.259427 -117.3 0.259427 -117.3 0.949018 121.70
6.29854400 0.949316 175.52 0.253769 -117.6 0.253769 -117.6 0.950506 121.38
6.29854500 0.950773 175.17 0.248089 -117.8 0.248089 -117.8 0.951965 121.06
6.29854600 0.952201 174.82 0.242389 -118.1 0.242389 -118.1 0.953393 120.73
6.29854700 0.953599 174.47 0.236667 -118.3 0.236667 -118.3 0.954792 120.40
6.29854800 0.954967 174.12 0.230926 -118.5 0.230926 -118.5 0.956161 120.08
6.29854900 0.956304 173.76 0.225166 -118.8 0.225166 -118.8 0.957498 119.75
6.29855000 0.957610 173.41 0.219386 -119.0 0.219386 -119.0 0.958805 119.42
6.29855100 0.958884 173.06 0.213589 -119.2 0.213589 -119.2 0.960080 119.09
6.29855200 0.960127 172.70 0.207774 -119.4 0.207774 -119.4 0.961324 118.76
6.29855300 0.961337 172.35 0.201942 -119.6 0.201942 -119.6 0.962535 118.43
6.29855400 0.962516 171.99 0.196094 -119.8 0.196094 -119.8 0.963714 118.10
6.29855500 0.963662 171.63 0.190230 -120.0 0.190230 -120.0 0.964860 117.77
6.29855600 0.964774 171.28 0.184352 -120.2 0.184352 -120.2 0.965974 117.44
6.29855700 0.965854 170.92 0.178459 -120.3 0.178459 -120.3 0.967054 117.10
6.29855800 0.966900 170.56 0.172554 -120.5 0.172554 -120.5 0.968100 116.77
6.29855900 0.967913 170.20 0.166635 -120.6 0.166635 -120.6 0.969113 116.44
6.29856000 0.968891 169.84 0.160706 -120.7 0.160706 -120.7 0.970092 116.10
6.29856100 0.969835 169.48 0.154765 -120.8 0.154765 -120.8 0.971036 115.77
6.29856200 0.970745 169.12 0.148815 -120.9 0.148815 -120.9 0.971946 115.43
6.29856300 0.971620 168.76 0.142856 -121.0 0.142856 -121.0 0.972822 115.10
6.29856400 0.972460 168.40 0.136890 -121.0 0.136890 -121.0 0.973662 114.76
6.29856500 0.973265 168.04 0.130917 -121.0 0.130917 -121.0 0.974467 114.42
6.29856600 0.974035 167.68 0.124939 -121.0 0.124939 -121.0 0.975237 114.09
6.29856700 0.974769 167.32 0.118957 -120.9 0.118957 -120.9 0.975971 113.75
6.29856800 0.975467 166.96 0.112973 -120.8 0.112973 -120.8 0.976669 113.41
6.29856900 0.976130 166.60 0.106989 -120.7 0.106989 -120.7 0.977332 113.08
6.29857000 0.976757 166.23 0.101007 -120.4 0.101007 -120.4 0.977959 112.74
6.29857100 0.977348 165.87 0.095029 -120.1 0.095029 -120.1 0.978549 112.40
6.29857200 0.977902 165.51 0.089058 -119.8 0.089058 -119.8 0.979104 112.06
6.29857300 0.978420 165.15 0.083098 -119.3 0.083098 -119.3 0.979622 111.72
6.29857400 0.978902 164.78 0.077153 -118.7 0.077153 -118.7 0.980103 111.39
6.29857500 0.979347 164.42 0.071229 -117.9 0.071229 -117.9 0.980548 111.05
6.29857600 0.979756 164.06 0.065334 -116.9 0.065334 -116.9 0.980957 110.71
6.29857700 0.980128 163.70 0.059477 -115.7 0.059477 -115.7 0.981329 110.37
6.29857800 0.980464 163.33 0.053674 -114.1 0.053674 -114.1 0.981664 110.03
6.29857900 0.980763 162.97 0.047944 -112.1 0.047944 -112.1 0.981962 109.69
6.29858000 0.981025 162.61 0.042319 -109.4 0.042319 -109.4 0.982224 109.36
6.29858100 0.981250 162.25 0.036849 -105.8 0.036849 -105.8 0.982448 109.02
6.29858200 0.981439 161.88 0.031614 -100.9 0.031614 -100.9 0.982636 108.68
6.29858300 0.981591 161.52 0.026752 -93.94 0.026752 -93.94 0.982788 108.34
6.29858400 0.981706 161.16 0.022506 -84.03 0.022506 -84.03 0.982902 108.00
6.29858500 0.981785 160.80 0.019286 -70.08 0.019286 -70.08 0.982980 107.66
6.29858600 0.981827 160.43 0.017660 -52.10 0.017660 -52.10 0.983021 107.33
6.29858700 0.981832 160.07 0.018060 -32.84 0.018060 -32.84 0.983026 106.99
!< P1 F=6.298587 Eeff=(5.67098596 -5.1692e-6) Z0=(56.6682071 2.5833e-5) R=0.00700006 C=0.00330395 
!< P2 F=6.298587 Eeff=(5.67081164 -5.1692e-6) Z0=(55.8847179 2.5474e-5) R=0.0078076 C=0.00295944 
6.29858800 0.981802 159.71 0.020346 -16.36 0.020346 -16.36 0.982994 106.65
6.29858900 0.981735 159.35 0.023980 -4.119 0.023980 -4.119 0.982927 106.32
6.29859000 0.981632 159.00 0.028444 4.4936 0.028444 4.4936 0.982823 105.98
6.29859100 0.981494 158.64 0.033405 10.560 0.033405 10.560 0.982684 105.65
6.29859200 0.981320 158.28 0.038668 14.921 0.038668 14.921 0.982509 105.32
6.29859300 0.981111 157.92 0.044121 18.134 0.044121 18.134 0.982298 104.98
6.29859400 0.980866 157.56 0.049698 20.554 0.049698 20.554 0.982052 104.65
6.29859500 0.980586 157.21 0.055359 22.409 0.055359 22.409 0.981771 104.32
6.29859600 0.980270 156.85 0.061077 23.853 0.061077 23.853 0.981455 103.98
6.29859700 0.979920 156.50 0.066833 24.988 0.066833 24.988 0.981103 103.65
6.29859800 0.979536 156.14 0.072617 25.887 0.072617 25.887 0.980717 103.32
6.29859900 0.979116 155.78 0.078418 26.601 0.078418 26.601 0.980297 102.99
6.29860000 0.978663 155.43 0.084229 27.168 0.084229 27.168 0.979842 102.66
6.29860100 0.978175 155.08 0.090047 27.617 0.090047 27.617 0.979353 102.33
6.29860200 0.977654 154.72 0.095866 27.970 0.095866 27.970 0.978830 102.00
6.29860300 0.977099 154.37 0.101684 28.242 0.101684 28.242 0.978274 101.67
6.29860400 0.976511 154.02 0.107498 28.448 0.107498 28.448 0.977684 101.34
6.29860500 0.975889 153.67 0.113305 28.598 0.113305 28.598 0.977061 101.01
6.29860600 0.975235 153.32 0.119104 28.699 0.119104 28.699 0.976405 100.69
6.29860700 0.974548 152.97 0.124893 28.760 0.124893 28.760 0.975716 100.36
6.29860800 0.973829 152.62 0.130671 28.785 0.130671 28.785 0.974996 100.04
6.29860900 0.973078 152.27 0.136436 28.780 0.136436 28.780 0.974243 99.712
6.29861000 0.972295 151.92 0.142188 28.748 0.142188 28.748 0.973458 99.388
6.29861100 0.971481 151.58 0.147925 28.693 0.147925 28.693 0.972642 99.065
6.29861200 0.970636 151.23 0.153647 28.616 0.153647 28.616 0.971795 98.743
6.29861300 0.969760 150.89 0.159352 28.522 0.159352 28.522 0.970917 98.421
6.29861400 0.968854 150.54 0.165039 28.411 0.165039 28.411 0.970009 98.101
6.29861500 0.967917 150.20 0.170709 28.286 0.170709 28.286 0.969071 97.781
6.29861600 0.966951 149.86 0.176360 28.149 0.176360 28.149 0.968103 97.462
6.29861700 0.965955 149.51 0.181991 27.999 0.181991 27.999 0.967105 97.144
6.29861800 0.964931 149.17 0.187603 27.839 0.187603 27.839 0.966078 96.827
6.29861900 0.963877 148.83 0.193193 27.670 0.193193 27.670 0.965023 96.511
6.29862000 0.962796 148.49 0.198763 27.493 0.198763 27.493 0.963939 96.196
6.29862100 0.961686 148.16 0.204311 27.307 0.204311 27.307 0.962827 95.881
6.29862200 0.960549 147.82 0.209836 27.115 0.209836 27.115 0.961688 95.568
6.29862300 0.959385 147.48 0.215339 26.917 0.215339 26.917 0.960522 95.256
6.29862400 0.958193 147.15 0.220818 26.714 0.220818 26.714 0.959328 94.945
6.29862500 0.956976 146.82 0.226274 26.505 0.226274 26.505 0.958108 94.634
6.29862600 0.955732 146.48 0.231706 26.291 0.231706 26.291 0.956862 94.325
6.29862700 0.954463 146.15 0.237113 26.074 0.237113 26.074 0.955591 94.017
6.29862800 0.953168 145.82 0.242495 25.852 0.242495 25.852 0.954294 93.710
6.29862900 0.951849 145.49 0.247852 25.627 0.247852 25.627 0.952972 93.404
6.29863000 0.950505 145.16 0.253184 25.399 0.253184 25.399 0.951626 93.099
6.29863100 0.949137 144.84 0.258489 25.168 0.258489 25.168 0.950256 92.796
6.29863200 0.947746 144.51 0.263768 24.935 0.263768 24.935 0.948862 92.493
6.29863300 0.946331 144.19 0.269020 24.699 0.269020 24.699 0.947445 92.191
6.29863400 0.944893 143.86 0.274245 24.462 0.274245 24.462 0.946004 91.891
6.29863500 0.943433 143.54 0.279443 24.222 0.279443 24.222 0.944542 91.592
6.29863600 0.941951 143.22 0.284613 23.981 0.284613 23.981 0.943058 91.294
6.29863700 0.940448 142.90 0.289756 23.738 0.289756 23.738 0.941551 90.997
6.29863800 0.938923 142.58 0.294870 23.494 0.294870 23.494 0.940024 90.702
6.29863900 0.937378 142.26 0.299956 23.249 0.299956 23.249 0.938476 90.407
6.29864000 0.935812 141.95 0.305013 23.002 0.305013 23.002 0.936908 90.114
6.29864100 0.934226 141.63 0.310042 22.755 0.310042 22.755 0.935320 89.822
6.29864200 0.932621 141.32 0.315041 22.507 0.315041 22.507 0.933712 89.532
6.29864300 0.930997 141.01 0.320012 22.259 0.320012 22.259 0.932085 89.242
6.29864400 0.929354 140.69 0.324953 22.009 0.324953 22.009 0.930439 88.954
6.29864500 0.927693 140.38 0.329864 21.760 0.329864 21.760 0.928775 88.667
6.29864600 0.926014 140.08 0.334746 21.510 0.334746 21.510 0.927094 88.381
6.29864700 0.924317 139.77 0.339597 21.260 0.339597 21.260 0.925394 88.097
6.29864800 0.922604 139.46 0.344419 21.009 0.344419 21.009 0.923678 87.814
6.29864900 0.920874 139.16 0.349210 20.759 0.349210 20.759 0.921945 87.532
6.29865000 0.919127 138.85 0.353972 20.508 0.353972 20.508 0.920196 87.252
6.29865100 0.917365 138.55 0.358702 20.258 0.358702 20.258 0.918431 86.973
6.29865200 0.915588 138.25 0.363403 20.007 0.363403 20.007 0.916651 86.695
6.29865300 0.913795 137.95 0.368072 19.757 0.368072 19.757 0.914856 86.418
6.29865400 0.911988 137.65 0.372711 19.507 0.372711 19.507 0.913046 86.143
6.29865500 0.910167 137.36 0.377320 19.257 0.377320 19.257 0.911222 85.869
6.29865600 0.908332 137.06 0.381897 19.008 0.381897 19.008 0.909384 85.597
6.29865700 0.906483 136.77 0.386443 18.759 0.386443 18.759 0.907532 85.325
6.29865800 0.904622 136.47 0.390959 18.510 0.390959 18.510 0.905668 85.056
6.29865900 0.902748 136.18 0.395444 18.262 0.395444 18.262 0.903791 84.787
6.29866000 0.900861 135.89 0.399897 18.014 0.399897 18.014 0.901901 84.520
6.29866100 0.898963 135.60 0.404320 17.767 0.404320 17.767 0.900000 84.254
6.29866200 0.897053 135.32 0.408711 17.521 0.408711 17.521 0.898087 83.990
6.29866300 0.895132 135.03 0.413072 17.275 0.413072 17.275 0.896163 83.726
6.29866400 0.893200 134.75 0.417401 17.029 0.417401 17.029 0.894229 83.465
6.29866500 0.891258 134.46 0.421699 16.785 0.421699 16.785 0.892284 83.204
6.29866600 0.889306 134.18 0.425966 16.541 0.425966 16.541 0.890328 82.945
6.29866700 0.887344 133.90 0.430202 16.298 0.430202 16.298 0.888363 82.688
6.29866800 0.885373 133.62 0.434408 16.055 0.434408 16.055 0.886389 82.431
6.29866900 0.883392 133.35 0.438582 15.813 0.438582 15.813 0.884406 82.177
6.29867000 0.881404 133.07 0.442725 15.572 0.442725 15.572 0.882414 81.923
6.29867100 0.879406 132.79 0.446838 15.332 0.446838 15.332 0.880414 81.671
6.29867200 0.877401 132.52 0.450919 15.093 0.450919 15.093 0.878406 81.420
6.29867300 0.875388 132.25 0.454970 14.855 0.454970 14.855 0.876390 81.171
6.29867400 0.873368 131.98 0.458990 14.617 0.458990 14.617 0.874367 80.923
6.29867500 0.871341 131.71 0.462980 14.380 0.462980 14.380 0.872337 80.676
!< P1 F=6.298675 Eeff=(5.6709868 -5.1691e-6) Z0=(56.6682064 2.58286e-5) R=0.00699981 C=0.00330394 
!< P2 F=6.298675 Eeff=(5.67081253 -5.1691e-6) Z0=(55.8847168 2.5474e-5) R=0.00780644 C=0.00295943 
6.29868000 0.859781 130.22 0.484916 13.061 0.484916 13.061 0.860760 79.310