! Sonnet Data File
! From: em Version : 14.52
! From Project: w1
! Data is De-embedded 
! Data File Written: 07/06/2018 21:00:15
!< HDATE 07/02/2018 15:56:48
!< MDATE 07/05/2018 23:20:39
# GHZ S MA R 50.00000
6.00000000 0.022741 51.170 0.999741 -40.45 0.999741 -40.45 0.022741 47.932
!< P1 F=6.0 Eeff=(5.67090783 -5.1692e-6) Z0=(52.9082485 2.41168e-5) R=0.00793986 C=0.00305535 
!< P2 F=6.0 Eeff=(5.67086553 -5.1692e-6) Z0=(51.6108414 2.3525e-5) R=0.0080494 C=0.00301365 
6.00500000 0.022757 51.138 0.999741 -40.48 0.999741 -40.48 0.022757 47.897
6.01000000 0.022773 51.106 0.999741 -40.52 0.999741 -40.52 0.022773 47.862
6.01500000 0.022788 51.074 0.999740 -40.55 0.999740 -40.55 0.022789 47.827
6.02000000 0.022804 51.042 0.999740 -40.58 0.999740 -40.58 0.022804 47.792
6.02500000 0.022820 51.011 0.999740 -40.62 0.999740 -40.62 0.022820 47.757
6.03000000 0.022835 50.979 0.999740 -40.65 0.999740 -40.65 0.022836 47.722
6.03500000 0.022851 50.947 0.999739 -40.69 0.999739 -40.69 0.022851 47.687
6.04000000 0.022866 50.915 0.999739 -40.72 0.999739 -40.72 0.022867 47.652
6.04500000 0.022882 50.883 0.999739 -40.75 0.999739 -40.75 0.022883 47.617
6.05000000 0.022897 50.851 0.999738 -40.79 0.999738 -40.79 0.022898 47.582
6.05500000 0.022913 50.819 0.999738 -40.82 0.999738 -40.82 0.022914 47.547
6.06000000 0.022928 50.787 0.999738 -40.85 0.999738 -40.85 0.022929 47.512
6.06500000 0.022944 50.754 0.999738 -40.89 0.999738 -40.89 0.022945 47.477
6.07000000 0.022959 50.722 0.999737 -40.92 0.999737 -40.92 0.022961 47.442
6.07500000 0.022975 50.690 0.999737 -40.96 0.999737 -40.96 0.022976 47.407
6.08000000 0.022990 50.658 0.999737 -40.99 0.999737 -40.99 0.022991 47.372
6.08500000 0.023006 50.626 0.999736 -41.02 0.999736 -41.02 0.023007 47.337
6.09000000 0.023021 50.594 0.999736 -41.06 0.999736 -41.06 0.023022 47.302
6.09500000 0.023036 50.562 0.999736 -41.09 0.999736 -41.09 0.023038 47.267
6.10000000 0.023052 50.529 0.999735 -41.12 0.999735 -41.12 0.023053 47.232
6.10500000 0.023067 50.497 0.999735 -41.16 0.999735 -41.16 0.023069 47.197
6.11000000 0.023082 50.465 0.999735 -41.19 0.999735 -41.19 0.023084 47.162
6.11500000 0.023098 50.433 0.999735 -41.23 0.999735 -41.23 0.023099 47.127
6.12000000 0.023113 50.400 0.999734 -41.26 0.999734 -41.26 0.023115 47.092
6.12500000 0.023128 50.368 0.999734 -41.29 0.999734 -41.29 0.023130 47.057
6.13000000 0.023143 50.336 0.999734 -41.33 0.999734 -41.33 0.023145 47.022
6.13500000 0.023158 50.303 0.999733 -41.36 0.999733 -41.36 0.023160 46.988
6.14000000 0.023174 50.271 0.999733 -41.39 0.999733 -41.39 0.023175 46.953
6.14500000 0.023189 50.238 0.999733 -41.43 0.999733 -41.43 0.023191 46.918
6.15000000 0.023204 50.206 0.999732 -41.46 0.999732 -41.46 0.023206 46.883
6.15500000 0.023219 50.174 0.999732 -41.50 0.999732 -41.50 0.023221 46.848
6.16000000 0.023234 50.141 0.999732 -41.53 0.999732 -41.53 0.023236 46.813
6.16500000 0.023249 50.109 0.999731 -41.56 0.999731 -41.56 0.023251 46.778
6.17000000 0.023264 50.076 0.999731 -41.60 0.999731 -41.60 0.023266 46.743
6.17500000 0.023279 50.044 0.999731 -41.63 0.999731 -41.63 0.023281 46.708
6.18000000 0.023294 50.011 0.999730 -41.66 0.999730 -41.66 0.023296 46.673
6.18500000 0.023309 49.978 0.999730 -41.70 0.999730 -41.70 0.023311 46.638
6.19000000 0.023324 49.946 0.999730 -41.73 0.999730 -41.73 0.023326 46.604
6.19500000 0.023339 49.913 0.999729 -41.77 0.999729 -41.77 0.023341 46.569
6.20000000 0.023354 49.881 0.999729 -41.80 0.999729 -41.80 0.023356 46.534
6.20500000 0.023369 49.848 0.999729 -41.83 0.999729 -41.83 0.023371 46.499
6.21000000 0.023384 49.815 0.999728 -41.87 0.999728 -41.87 0.023386 46.464
6.21500000 0.023398 49.783 0.999728 -41.90 0.999728 -41.90 0.023400 46.429
6.22000000 0.023413 49.750 0.999728 -41.93 0.999728 -41.93 0.023415 46.395
6.22500000 0.023428 49.717 0.999727 -41.97 0.999727 -41.97 0.023430 46.360
6.23000000 0.023443 49.684 0.999727 -42.00 0.999727 -42.00 0.023445 46.325
6.23500000 0.023457 49.652 0.999726 -42.04 0.999726 -42.04 0.023459 46.290
6.24000000 0.023472 49.619 0.999726 -42.07 0.999726 -42.07 0.023474 46.256
6.24500000 0.023487 49.586 0.999726 -42.10 0.999726 -42.10 0.023488 46.221
6.25000000 0.023501 49.553 0.999725 -42.14 0.999725 -42.14 0.023503 46.186
6.25500000 0.023516 49.520 0.999725 -42.17 0.999725 -42.17 0.023517 46.151
6.26000000 0.023530 49.487 0.999725 -42.20 0.999725 -42.20 0.023532 46.117
6.26500000 0.023545 49.454 0.999724 -42.24 0.999724 -42.24 0.023546 46.082
6.27000000 0.023559 49.421 0.999724 -42.27 0.999724 -42.27 0.023561 46.047
6.27500000 0.023573 49.388 0.999724 -42.31 0.999724 -42.31 0.023575 46.013
6.28000000 0.023588 49.355 0.999723 -42.34 0.999723 -42.34 0.023589 45.978
6.28500000 0.023602 49.322 0.999723 -42.37 0.999723 -42.37 0.023604 45.944
6.29000000 0.023616 49.289 0.999723 -42.41 0.999723 -42.41 0.023618 45.909
6.29500000 0.023630 49.256 0.999722 -42.44 0.999722 -42.44 0.023632 45.874
6.30000000 0.023644 49.222 0.999722 -42.47 0.999722 -42.47 0.023646 45.840
6.30500000 0.023658 49.189 0.999721 -42.51 0.999721 -42.51 0.023660 45.806
6.31000000 0.023672 49.156 0.999721 -42.54 0.999721 -42.54 0.023674 45.771
6.31500000 0.023686 49.122 0.999721 -42.58 0.999721 -42.58 0.023688 45.737
6.32000000 0.023700 49.089 0.999720 -42.61 0.999720 -42.61 0.023702 45.702
6.32500000 0.023714 49.056 0.999720 -42.64 0.999720 -42.64 0.023715 45.668
6.33000000 0.023728 49.022 0.999720 -42.68 0.999720 -42.68 0.023729 45.634
6.33500000 0.023741 48.989 0.999719 -42.71 0.999719 -42.71 0.023743 45.599
6.34000000 0.023755 48.955 0.999719 -42.74 0.999719 -42.74 0.023756 45.565
6.34500000 0.023768 48.921 0.999719 -42.78 0.999719 -42.78 0.023770 45.531
6.35000000 0.023782 48.887 0.999718 -42.81 0.999718 -42.81 0.023783 45.497
6.35500000 0.023795 48.854 0.999718 -42.85 0.999718 -42.85 0.023796 45.463
6.36000000 0.023808 48.820 0.999717 -42.88 0.999717 -42.88 0.023810 45.429
6.36500000 0.023821 48.786 0.999717 -42.91 0.999717 -42.91 0.023823 45.395
6.37000000 0.023834 48.752 0.999717 -42.95 0.999717 -42.95 0.023836 45.361
6.37500000 0.023847 48.718 0.999716 -42.98 0.999716 -42.98 0.023848 45.327
6.38000000 0.023860 48.683 0.999716 -43.02 0.999716 -43.02 0.023861 45.294
6.38500000 0.023872 48.649 0.999716 -43.05 0.999716 -43.05 0.023874 45.260
6.39000000 0.023885 48.615 0.999715 -43.08 0.999715 -43.08 0.023886 45.227
6.39500000 0.023897 48.580 0.999715 -43.12 0.999715 -43.12 0.023898 45.193
6.40000000 0.023909 48.545 0.999715 -43.15 0.999715 -43.15 0.023910 45.160
6.40500000 0.023921 48.511 0.999714 -43.18 0.999714 -43.18 0.023922 45.127
6.41000000 0.023933 48.476 0.999714 -43.22 0.999714 -43.22 0.023934 45.094
6.41500000 0.023944 48.440 0.999714 -43.25 0.999714 -43.25 0.023945 45.061
6.42000000 0.023956 48.405 0.999714 -43.29 0.999714 -43.29 0.023957 45.028
6.42500000 0.023967 48.370 0.999713 -43.32 0.999713 -43.32 0.023968 44.996
6.43000000 0.023977 48.334 0.999713 -43.35 0.999713 -43.35 0.023978 44.963
6.43500000 0.023988 48.298 0.999713 -43.39 0.999713 -43.39 0.023989 44.931
6.44000000 0.023998 48.262 0.999712 -43.42 0.999712 -43.42 0.023999 44.899
6.44500000 0.024008 48.225 0.999712 -43.46 0.999712 -43.46 0.024008 44.867
6.45000000 0.024017 48.188 0.999712 -43.49 0.999712 -43.49 0.024017 44.836
6.45500000 0.024026 48.151 0.999712 -43.52 0.999712 -43.52 0.024026 44.805
6.46000000 0.024034 48.113 0.999711 -43.56 0.999711 -43.56 0.024034 44.774
6.46500000 0.024041 48.075 0.999711 -43.59 0.999711 -43.59 0.024042 44.744
6.47000000 0.024048 48.036 0.999711 -43.63 0.999711 -43.63 0.024049 44.714
6.47500000 0.024054 47.997 0.999711 -43.66 0.999711 -43.66 0.024055 44.685
6.48000000 0.024060 47.957 0.999711 -43.70 0.999711 -43.70 0.024060 44.656
6.48500000 0.024064 47.916 0.999710 -43.73 0.999710 -43.73 0.024064 44.628
6.49000000 0.024067 47.874 0.999710 -43.76 0.999710 -43.76 0.024067 44.601
6.49500000 0.024069 47.831 0.999710 -43.80 0.999710 -43.80 0.024069 44.574
6.50000000 0.024069 47.787 0.999710 -43.83 0.999710 -43.83 0.024069 44.549
6.50500000 0.024066 47.741 0.999710 -43.87 0.999710 -43.87 0.024067 44.526
6.51000000 0.024062 47.693 0.999710 -43.90 0.999710 -43.90 0.024062 44.504
6.51500000 0.024055 47.643 0.999710 -43.94 0.999710 -43.94 0.024055 44.484
6.52000000 0.024043 47.590 0.999711 -43.97 0.999711 -43.97 0.024044 44.466
6.52500000 0.024028 47.533 0.999711 -44.01 0.999711 -44.01 0.024028 44.452
6.53000000 0.024006 47.471 0.999712 -44.04 0.999712 -44.04 0.024006 44.442
6.53500000 0.023976 47.402 0.999712 -44.08 0.999712 -44.08 0.023976 44.438
6.54000000 0.023935 47.325 0.999713 -44.12 0.999713 -44.12 0.023935 44.441
6.54500000 0.023879 47.234 0.999715 -44.16 0.999715 -44.16 0.023879 44.455
6.55000000 0.023800 47.125 0.999716 -44.20 0.999716 -44.20 0.023800 44.486
6.55500000 0.023685 46.985 0.999719 -44.24 0.999719 -44.24 0.023685 44.544
6.56000000 0.023508 46.791 0.999723 -44.28 0.999723 -44.28 0.023508 44.647
6.56500000 0.023214 46.493 0.999730 -44.33 0.999730 -44.33 0.023214 44.841
6.57000000 0.022642 45.937 0.999743 -44.40 0.999743 -44.40 0.022643 45.260
6.57500000 0.021124 44.400 0.999775 -44.53 0.999775 -44.53 0.021125 46.550
6.58000000 0.008250 2.4052 0.999914 -45.47 0.999914 -45.47 0.008340 86.988
!< P1 F=6.58 Eeff=(5.67086881 -5.1691e-6) Z0=(52.9079655 2.41168e-5) R=0.00724064 C=0.00305533 
!< P2 F=6.58 Eeff=(5.67082519 -5.1691e-6) Z0=(51.6105684 2.3525e-5) R=0.00733853 C=0.00301363 
6.58020000 0.007207 -28.00 0.999898 -45.71 0.999898 -45.71 0.007357 116.54
6.58040000 0.009717 -69.56 0.999830 -46.08 0.999830 -46.08 0.009898 156.45
!< P1 F=6.5804 Eeff=(5.67086905 -5.1689e-6) Z0=(52.9079641 2.41168e-5) R=0.00724302 C=0.00305532 
!< P2 F=6.5804 Eeff=(5.67082526 -5.1701e-6) Z0=(51.610566 2.3525e-5) R=0.00733876 C=0.00301363 
6.58040500 0.009855 -70.46 0.999827 -46.09 0.999827 -46.09 0.010035 157.30
6.58041000 0.009997 -71.34 0.999824 -46.10 0.999824 -46.10 0.010177 158.15
6.58041500 0.010143 -72.20 0.999821 -46.12 0.999821 -46.12 0.010324 158.97
6.58042000 0.010294 -73.06 0.999818 -46.13 0.999818 -46.13 0.010474 159.79
6.58042500 0.010449 -73.90 0.999814 -46.14 0.999814 -46.14 0.010629 160.59
6.58043000 0.010608 -74.72 0.999811 -46.15 0.999811 -46.15 0.010788 161.38
6.58043500 0.010772 -75.54 0.999807 -46.17 0.999807 -46.17 0.010951 162.16
6.58044000 0.010940 -76.34 0.999803 -46.18 0.999803 -46.18 0.011119 162.92
6.58044500 0.011112 -77.13 0.999800 -46.19 0.999800 -46.19 0.011291 163.67
6.58045000 0.011289 -77.90 0.999796 -46.21 0.999796 -46.21 0.011468 164.41
6.58045500 0.011471 -78.67 0.999791 -46.22 0.999791 -46.22 0.011649 165.14
6.58046000 0.011657 -79.42 0.999787 -46.23 0.999787 -46.23 0.011835 165.85
6.58046500 0.011847 -80.16 0.999783 -46.25 0.999783 -46.25 0.012026 166.55
6.58047000 0.012043 -80.88 0.999778 -46.26 0.999778 -46.26 0.012221 167.24
6.58047500 0.012243 -81.59 0.999774 -46.28 0.999774 -46.28 0.012421 167.92
6.58048000 0.012448 -82.29 0.999769 -46.29 0.999769 -46.29 0.012625 168.58
6.58048500 0.012658 -82.98 0.999764 -46.30 0.999764 -46.30 0.012835 169.23
6.58049000 0.012873 -83.66 0.999759 -46.32 0.999759 -46.32 0.013050 169.87
6.58049500 0.013093 -84.32 0.999753 -46.33 0.999753 -46.33 0.013269 170.50
6.58050000 0.013317 -84.98 0.999748 -46.35 0.999748 -46.35 0.013494 171.11
6.58050500 0.013548 -85.62 0.999742 -46.37 0.999742 -46.37 0.013724 171.72
6.58051000 0.013783 -86.25 0.999736 -46.38 0.999736 -46.38 0.013959 172.31
6.58051500 0.014023 -86.87 0.999730 -46.40 0.999730 -46.40 0.014199 172.89
6.58052000 0.014269 -87.48 0.999724 -46.41 0.999724 -46.41 0.014445 173.46
6.58052500 0.014521 -88.08 0.999717 -46.43 0.999717 -46.43 0.014696 174.02
6.58053000 0.014778 -88.66 0.999711 -46.45 0.999711 -46.45 0.014953 174.57
6.58053500 0.015041 -89.24 0.999704 -46.47 0.999704 -46.47 0.015216 175.10
6.58054000 0.015309 -89.81 0.999697 -46.48 0.999697 -46.48 0.015484 175.63
6.58054500 0.015584 -90.36 0.999689 -46.50 0.999689 -46.50 0.015758 176.15
6.58055000 0.015864 -90.91 0.999682 -46.52 0.999682 -46.52 0.016039 176.65
6.58055500 0.016151 -91.45 0.999674 -46.54 0.999674 -46.54 0.016325 177.15
6.58056000 0.016443 -91.98 0.999666 -46.56 0.999666 -46.56 0.016618 177.64
6.58056500 0.016742 -92.50 0.999657 -46.57 0.999657 -46.57 0.016917 178.11
6.58057000 0.017048 -93.01 0.999649 -46.59 0.999649 -46.59 0.017222 178.58
6.58057500 0.017360 -93.51 0.999639 -46.61 0.999639 -46.61 0.017534 179.04
6.58058000 0.017679 -94.01 0.999630 -46.63 0.999630 -46.63 0.017853 179.49
6.58058500 0.018005 -94.49 0.999620 -46.65 0.999620 -46.65 0.018179 179.93
6.58059000 0.018338 -94.97 0.999610 -46.68 0.999610 -46.68 0.018512 -179.6
6.58059500 0.018678 -95.44 0.999600 -46.70 0.999600 -46.70 0.018852 -179.2
6.58060000 0.019026 -95.90 0.999589 -46.72 0.999589 -46.72 0.019199 -178.8
6.58060500 0.019381 -96.35 0.999578 -46.74 0.999578 -46.74 0.019554 -178.4
6.58061000 0.019744 -96.80 0.999567 -46.76 0.999567 -46.76 0.019917 -178.0
6.58061500 0.020114 -97.24 0.999555 -46.79 0.999555 -46.79 0.020288 -177.6
6.58062000 0.020493 -97.67 0.999542 -46.81 0.999542 -46.81 0.020667 -177.2
6.58062500 0.020881 -98.10 0.999530 -46.83 0.999530 -46.83 0.021055 -176.9
6.58063000 0.021276 -98.52 0.999516 -46.86 0.999516 -46.86 0.021451 -176.5
6.58063500 0.021681 -98.93 0.999502 -46.88 0.999502 -46.88 0.021855 -176.1
6.58064000 0.022095 -99.33 0.999488 -46.91 0.999488 -46.91 0.022269 -175.8
6.58064500 0.022518 -99.73 0.999473 -46.93 0.999473 -46.93 0.022692 -175.4
6.58065000 0.022950 -100.1 0.999458 -46.96 0.999458 -46.96 0.023125 -175.1
6.58065500 0.023392 -100.5 0.999442 -46.99 0.999442 -46.99 0.023568 -174.8
6.58066000 0.023845 -100.9 0.999425 -47.01 0.999425 -47.01 0.024020 -174.4
6.58066500 0.024308 -101.3 0.999408 -47.04 0.999408 -47.04 0.024483 -174.1
6.58067000 0.024781 -101.6 0.999390 -47.07 0.999390 -47.07 0.024957 -173.8
6.58067500 0.025265 -102.0 0.999371 -47.10 0.999371 -47.10 0.025442 -173.5
6.58068000 0.025761 -102.4 0.999352 -47.13 0.999352 -47.13 0.025938 -173.2
6.58068500 0.026269 -102.7 0.999332 -47.16 0.999332 -47.16 0.026446 -172.9
6.58069000 0.026788 -103.1 0.999311 -47.19 0.999311 -47.19 0.026966 -172.6
6.58069500 0.027320 -103.4 0.999289 -47.22 0.999289 -47.22 0.027498 -172.4
6.58070000 0.027865 -103.8 0.999266 -47.25 0.999266 -47.25 0.028043 -172.1
6.58070500 0.028423 -104.1 0.999243 -47.29 0.999243 -47.29 0.028602 -171.8
6.58071000 0.028994 -104.4 0.999218 -47.32 0.999218 -47.32 0.029174 -171.6
6.58071500 0.029580 -104.8 0.999192 -47.35 0.999192 -47.35 0.029760 -171.3
6.58072000 0.030180 -105.1 0.999166 -47.39 0.999166 -47.39 0.030361 -171.1
6.58072500 0.030796 -105.4 0.999138 -47.43 0.999138 -47.43 0.030978 -170.8
6.58073000 0.031427 -105.7 0.999108 -47.46 0.999108 -47.46 0.031609 -170.6
6.58073500 0.032075 -106.1 0.999078 -47.50 0.999078 -47.50 0.032258 -170.3
6.58074000 0.032739 -106.4 0.999046 -47.54 0.999046 -47.54 0.032923 -170.1
6.58074500 0.033420 -106.7 0.999013 -47.58 0.999013 -47.58 0.033605 -169.9
6.58075000 0.034120 -107.0 0.998979 -47.62 0.998979 -47.62 0.034306 -169.7
6.58075500 0.034839 -107.3 0.998942 -47.66 0.998942 -47.66 0.035025 -169.5
6.58076000 0.035576 -107.6 0.998905 -47.71 0.998905 -47.71 0.035764 -169.3
6.58076500 0.036335 -107.9 0.998865 -47.75 0.998865 -47.75 0.036523 -169.1
6.58077000 0.037114 -108.2 0.998823 -47.80 0.998823 -47.80 0.037303 -168.9
6.58077500 0.037915 -108.5 0.998780 -47.84 0.998780 -47.84 0.038105 -168.7
6.58078000 0.038739 -108.8 0.998734 -47.89 0.998734 -47.89 0.038930 -168.5
6.58078500 0.039586 -109.1 0.998687 -47.94 0.998687 -47.94 0.039779 -168.3
6.58079000 0.040458 -109.3 0.998637 -47.99 0.998637 -47.99 0.040652 -168.1
6.58079500 0.041356 -109.6 0.998584 -48.05 0.998584 -48.05 0.041551 -168.0
6.58080000 0.042280 -109.9 0.998529 -48.10 0.998529 -48.10 0.042477 -167.8
6.58080500 0.043233 -110.2 0.998471 -48.16 0.998471 -48.16 0.043431 -167.7
6.58081000 0.044215 -110.5 0.998410 -48.21 0.998410 -48.21 0.044415 -167.5
6.58081500 0.045227 -110.8 0.998346 -48.27 0.998346 -48.27 0.045428 -167.4
6.58082000 0.046272 -111.0 0.998278 -48.33 0.998278 -48.33 0.046474 -167.2
6.58082500 0.047349 -111.3 0.998207 -48.39 0.998207 -48.39 0.047554 -167.1
6.58083000 0.048462 -111.6 0.998132 -48.46 0.998132 -48.46 0.048668 -166.9
6.58083500 0.049612 -111.9 0.998053 -48.53 0.998053 -48.53 0.049820 -166.8
6.58084000 0.050800 -112.1 0.997969 -48.60 0.997969 -48.60 0.051009 -166.7
6.58084500 0.052028 -112.4 0.997881 -48.67 0.997881 -48.67 0.052240 -166.6
6.58085000 0.053299 -112.7 0.997787 -48.74 0.997787 -48.74 0.053513 -166.5
6.58085500 0.054614 -113.0 0.997688 -48.82 0.997688 -48.82 0.054830 -166.4
6.58086000 0.055977 -113.2 0.997584 -48.90 0.997584 -48.90 0.056195 -166.3
6.58086500 0.057389 -113.5 0.997473 -48.98 0.997473 -48.98 0.057609 -166.2
6.58087000 0.058853 -113.8 0.997355 -49.06 0.997355 -49.06 0.059076 -166.1
6.58087500 0.060372 -114.1 0.997230 -49.15 0.997230 -49.15 0.060598 -166.0
6.58088000 0.061949 -114.3 0.997097 -49.24 0.997097 -49.24 0.062178 -165.9
6.58088500 0.063588 -114.6 0.996955 -49.34 0.996955 -49.34 0.063820 -165.9
6.58089000 0.065292 -114.9 0.996804 -49.43 0.996804 -49.43 0.065527 -165.8
6.58089500 0.067065 -115.2 0.996643 -49.54 0.996643 -49.54 0.067303 -165.7
6.58090000 0.068912 -115.5 0.996471 -49.64 0.996471 -49.64 0.069152 -165.7
6.58090500 0.070836 -115.8 0.996288 -49.75 0.996288 -49.75 0.071080 -165.6
6.58091000 0.072842 -116.1 0.996091 -49.87 0.996091 -49.87 0.073090 -165.6
6.58091500 0.074937 -116.4 0.995880 -49.99 0.995880 -49.99 0.075189 -165.6
6.58092000 0.077126 -116.7 0.995654 -50.12 0.995654 -50.12 0.077381 -165.6
6.58092500 0.079415 -117.0 0.995410 -50.25 0.995410 -50.25 0.079674 -165.6
6.58093000 0.081811 -117.3 0.995149 -50.39 0.995149 -50.39 0.082075 -165.6
6.58093500 0.084322 -117.6 0.994866 -50.53 0.994866 -50.53 0.084590 -165.6
6.58094000 0.086956 -117.9 0.994561 -50.69 0.994561 -50.69 0.087229 -165.6
6.58094500 0.089723 -118.3 0.994231 -50.85 0.994231 -50.85 0.090001 -165.6
6.58095000 0.092632 -118.6 0.993874 -51.01 0.993874 -51.01 0.092915 -165.7
6.58095500 0.095694 -118.9 0.993486 -51.19 0.993486 -51.19 0.095983 -165.7
6.58096000 0.098922 -119.3 0.993063 -51.38 0.993063 -51.38 0.099217 -165.8
6.58096500 0.102330 -119.7 0.992603 -51.57 0.992603 -51.57 0.102631 -165.9
6.58097000 0.105932 -120.0 0.992100 -51.78 0.992100 -51.78 0.106240 -166.0
6.58097500 0.109746 -120.4 0.991549 -52.00 0.991549 -52.00 0.110061 -166.1
6.58098000 0.113790 -120.8 0.990944 -52.24 0.990944 -52.24 0.114112 -166.2
6.58098500 0.118085 -121.2 0.990278 -52.49 0.990278 -52.49 0.118416 -166.4
6.58099000 0.122656 -121.7 0.989543 -52.75 0.989543 -52.75 0.122995 -166.5
6.58099500 0.127529 -122.1 0.988729 -53.03 0.988729 -53.03 0.127877 -166.7
6.58100000 0.132734 -122.6 0.987826 -53.33 0.987826 -53.33 0.133093 -166.9
6.58100500 0.138307 -123.1 0.986819 -53.66 0.986819 -53.66 0.138675 -167.2
6.58101000 0.144286 -123.6 0.985693 -54.00 0.985693 -54.00 0.144666 -167.4
6.58101500 0.150716 -124.1 0.984430 -54.38 0.984430 -54.38 0.151108 -167.7
6.58102000 0.157649 -124.7 0.983006 -54.78 0.983006 -54.78 0.158055 -168.1
6.58102500 0.165146 -125.3 0.981394 -55.21 0.981394 -55.21 0.165566 -168.4
6.58103000 0.173275 -126.0 0.979562 -55.69 0.979562 -55.69 0.173710 -168.9
6.58103500 0.182118 -126.7 0.977467 -56.20 0.977467 -56.20 0.182570 -169.3
6.58104000 0.191770 -127.5 0.975059 -56.76 0.975059 -56.76 0.192240 -169.8
6.58104500 0.202342 -128.3 0.972277 -57.38 0.972277 -57.38 0.202832 -170.4
6.58105000 0.213966 -129.2 0.969039 -58.06 0.969039 -58.06 0.214478 -171.1
6.58105500 0.226800 -130.2 0.965246 -58.82 0.965246 -58.82 0.227337 -171.8
6.58106000 0.241034 -131.2 0.960769 -59.66 0.960769 -59.66 0.241598 -172.7
6.58106500 0.256892 -132.4 0.955440 -60.59 0.955440 -60.59 0.257487 -173.7
6.58107000 0.274651 -133.7 0.949040 -61.65 0.949040 -61.65 0.275279 -174.8
6.58107500 0.294642 -135.2 0.941277 -62.84 0.941277 -62.84 0.295308 -176.0
6.58108000 0.317270 -136.9 0.931759 -64.20 0.931759 -64.20 0.317979 -177.5
6.58108500 0.343026 -138.8 0.919951 -65.76 0.919951 -65.76 0.343784 -179.2
6.58109000 0.372503 -141.0 0.905115 -67.56 0.905115 -67.56 0.373317 178.82
6.58109500 0.406407 -143.6 0.886220 -69.65 0.886220 -69.65 0.407285 176.47
6.58110000 0.449592 -146.9 0.859130 -72.37 0.859130 -72.37 0.450552 173.37
!< P1 F=6.5811 Eeff=(5.67086896 -5.1685e-6) Z0=(52.9079625 2.41168e-5) R=0.00724289 C=0.00305532 
!< P2 F=6.5811 Eeff=(5.67082535 -5.1697e-6) Z0=(51.6105654 2.3525e-5) R=0.0073394 C=0.00301363 
6.58110025 0.451725 -147.1 0.857699 -72.51 0.857699 -72.51 0.452689 173.21
6.58110050 0.453873 -147.2 0.856247 -72.64 0.856247 -72.64 0.454841 173.05
6.58110075 0.456037 -147.4 0.854777 -72.78 0.854777 -72.78 0.457009 172.89
6.58110100 0.458217 -147.6 0.853285 -72.92 0.853285 -72.92 0.459193 172.73
6.58110125 0.460412 -147.8 0.851774 -73.06 0.851774 -73.06 0.461393 172.57
6.58110150 0.462624 -147.9 0.850241 -73.20 0.850241 -73.20 0.463608 172.41
6.58110175 0.464851 -148.1 0.848687 -73.34 0.848687 -73.34 0.465840 172.24
6.58110200 0.467095 -148.3 0.847112 -73.49 0.847112 -73.49 0.468088 172.07
6.58110225 0.469354 -148.5 0.845515 -73.63 0.845515 -73.63 0.470352 171.91
6.58110250 0.471630 -148.6 0.843895 -73.78 0.843895 -73.78 0.472632 171.74
6.58110275 0.473923 -148.8 0.842253 -73.92 0.842253 -73.92 0.474929 171.56
6.58110300 0.476232 -149.0 0.840587 -74.07 0.840587 -74.07 0.477242 171.39
6.58110325 0.478558 -149.2 0.838899 -74.22 0.838899 -74.22 0.479573 171.22
6.58110350 0.480900 -149.4 0.837186 -74.37 0.837186 -74.37 0.481919 171.04
6.58110375 0.483259 -149.6 0.835450 -74.53 0.835450 -74.53 0.484283 170.86
6.58110400 0.485636 -149.8 0.833689 -74.68 0.833689 -74.68 0.486664 170.68
6.58110425 0.488029 -149.9 0.831902 -74.84 0.831902 -74.84 0.489061 170.50
6.58110450 0.490439 -150.1 0.830091 -74.99 0.830091 -74.99 0.491476 170.32
6.58110475 0.492867 -150.3 0.828254 -75.15 0.828254 -75.15 0.493908 170.13
6.58110500 0.495311 -150.5 0.826390 -75.31 0.826390 -75.31 0.496358 169.94
6.58110525 0.497773 -150.7 0.824500 -75.47 0.824500 -75.47 0.498824 169.75
6.58110550 0.500253 -150.9 0.822582 -75.63 0.822582 -75.63 0.501308 169.56
6.58110575 0.502750 -151.1 0.820637 -75.79 0.820637 -75.79 0.503810 169.37
6.58110600 0.505265 -151.3 0.818665 -75.96 0.818665 -75.96 0.506329 169.18
6.58110625 0.507797 -151.5 0.816663 -76.12 0.816663 -76.12 0.508866 168.98
6.58110650 0.510347 -151.8 0.814633 -76.29 0.814633 -76.29 0.511421 168.78
6.58110675 0.512914 -152.0 0.812573 -76.46 0.812573 -76.46 0.513994 168.58
6.58110700 0.515500 -152.2 0.810483 -76.63 0.810483 -76.63 0.516584 168.38
6.58110725 0.518104 -152.4 0.808363 -76.80 0.808363 -76.80 0.519193 168.18
6.58110750 0.520725 -152.6 0.806212 -76.97 0.806212 -76.97 0.521819 167.97
6.58110775 0.523365 -152.8 0.804030 -77.15 0.804030 -77.15 0.524463 167.76
6.58110800 0.526022 -153.0 0.801816 -77.32 0.801816 -77.32 0.527126 167.55
6.58110825 0.528698 -153.3 0.799569 -77.50 0.799569 -77.50 0.529807 167.34
6.58110850 0.531391 -153.5 0.797290 -77.68 0.797290 -77.68 0.532505 167.13
6.58110875 0.534103 -153.7 0.794976 -77.86 0.794976 -77.86 0.535222 166.91
6.58110900 0.536833 -153.9 0.792629 -78.04 0.792629 -78.04 0.537958 166.69
6.58110925 0.539582 -154.2 0.790247 -78.22 0.790247 -78.22 0.540711 166.47
6.58110950 0.542348 -154.4 0.787830 -78.41 0.787830 -78.41 0.543483 166.25
6.58110975 0.545133 -154.6 0.785378 -78.59 0.785378 -78.59 0.546273 166.02
6.58111000 0.547936 -154.9 0.782888 -78.78 0.782888 -78.78 0.549081 165.79
6.58111025 0.550757 -155.1 0.780362 -78.97 0.780362 -78.97 0.551907 165.56
6.58111050 0.553597 -155.4 0.777799 -79.16 0.777799 -79.16 0.554752 165.33
6.58111075 0.556455 -155.6 0.775197 -79.35 0.775197 -79.35 0.557615 165.10
6.58111100 0.559330 -155.9 0.772557 -79.55 0.772557 -79.55 0.560496 164.86
6.58111125 0.562224 -156.1 0.769877 -79.74 0.769877 -79.74 0.563396 164.62
6.58111150 0.565136 -156.4 0.767158 -79.94 0.767158 -79.94 0.566313 164.38
6.58111175 0.568067 -156.6 0.764397 -80.14 0.764397 -80.14 0.569249 164.14
6.58111200 0.571015 -156.9 0.761596 -80.34 0.761596 -80.34 0.572203 163.89
6.58111225 0.573981 -157.1 0.758753 -80.54 0.758753 -80.54 0.575174 163.64
6.58111250 0.576965 -157.4 0.755867 -80.75 0.755867 -80.75 0.578164 163.39
6.58111275 0.579966 -157.6 0.752937 -80.95 0.752937 -80.95 0.581171 163.14
6.58111300 0.582986 -157.9 0.749964 -81.16 0.749964 -81.16 0.584196 162.88
6.58111325 0.586023 -158.2 0.746947 -81.37 0.746947 -81.37 0.587238 162.62
6.58111350 0.589077 -158.5 0.743884 -81.58 0.743884 -81.58 0.590299 162.36
6.58111375 0.592149 -158.7 0.740775 -81.79 0.740775 -81.79 0.593376 162.09
6.58111400 0.595238 -159.0 0.737620 -82.00 0.737620 -82.00 0.596470 161.83
6.58111425 0.598343 -159.3 0.734417 -82.22 0.734417 -82.22 0.599582 161.56
6.58111450 0.601466 -159.6 0.731166 -82.43 0.731166 -82.43 0.602711 161.28
6.58111475 0.604605 -159.9 0.727866 -82.65 0.727866 -82.65 0.605856 161.01
6.58111500 0.607761 -160.1 0.724517 -82.87 0.724517 -82.87 0.609017 160.73
6.58111525 0.610933 -160.4 0.721117 -83.09 0.721117 -83.09 0.612195 160.45
6.58111550 0.614122 -160.7 0.717667 -83.31 0.717667 -83.31 0.615390 160.17
6.58111575 0.617326 -161.0 0.714164 -83.54 0.714164 -83.54 0.618599 159.88
6.58111600 0.620545 -161.3 0.710610 -83.76 0.710610 -83.76 0.621825 159.59
6.58111625 0.623780 -161.6 0.707002 -83.99 0.707002 -83.99 0.625066 159.30
6.58111650 0.627030 -161.9 0.703340 -84.22 0.703340 -84.22 0.628322 159.00
6.58111675 0.630294 -162.2 0.699623 -84.45 0.699623 -84.45 0.631592 158.71
6.58111700 0.633573 -162.5 0.695851 -84.68 0.695851 -84.68 0.634877 158.40
6.58111725 0.636866 -162.9 0.692023 -84.91 0.692023 -84.91 0.638176 158.10
6.58111750 0.640173 -163.2 0.688138 -85.15 0.688138 -85.15 0.641489 157.79
6.58111775 0.643493 -163.5 0.684194 -85.38 0.684194 -85.38 0.644815 157.48
6.58111800 0.646826 -163.8 0.680193 -85.62 0.680193 -85.62 0.648154 157.17
6.58111825 0.650171 -164.1 0.676132 -85.86 0.676132 -85.86 0.651506 156.85
6.58111850 0.653529 -164.5 0.672011 -86.10 0.672011 -86.10 0.654869 156.53
6.58111875 0.656898 -164.8 0.667829 -86.34 0.667829 -86.34 0.658244 156.21
6.58111900 0.660278 -165.1 0.663586 -86.59 0.663586 -86.59 0.661631 155.88
6.58111925 0.663669 -165.5 0.659280 -86.83 0.659280 -86.83 0.665028 155.55
6.58111950 0.667070 -165.8 0.654912 -87.07 0.654912 -87.07 0.668435 155.22
6.58111975 0.670480 -166.2 0.650479 -87.32 0.650479 -87.32 0.671852 154.89
6.58112000 0.673900 -166.5 0.645982 -87.57 0.645982 -87.57 0.675278 154.55
6.58112025 0.677328 -166.9 0.641420 -87.82 0.641420 -87.82 0.678712 154.20
6.58112050 0.680763 -167.2 0.636792 -88.07 0.636792 -88.07 0.682154 153.86
6.58112075 0.684206 -167.6 0.632097 -88.32 0.632097 -88.32 0.685603 153.51
6.58112100 0.687655 -168.0 0.627335 -88.57 0.627335 -88.57 0.689058 153.16
6.58112125 0.691110 -168.3 0.622505 -88.82 0.622505 -88.82 0.692520 152.80
6.58112150 0.694570 -168.7 0.617606 -89.07 0.617606 -89.07 0.695986 152.44
6.58112175 0.698035 -169.1 0.612638 -89.32 0.612638 -89.32 0.699457 152.08
6.58112200 0.701503 -169.4 0.607600 -89.58 0.607600 -89.58 0.702931 151.71
6.58112225 0.704973 -169.8 0.602491 -89.83 0.602491 -89.83 0.706408 151.34
6.58112250 0.708446 -170.2 0.597311 -90.09 0.597311 -90.09 0.709886 150.97
6.58112275 0.711919 -170.6 0.592059 -90.34 0.592059 -90.34 0.713366 150.59
6.58112300 0.715393 -171.0 0.586735 -90.59 0.586735 -90.59 0.716846 150.21
6.58112325 0.718865 -171.4 0.581338 -90.85 0.581338 -90.85 0.720325 149.82
6.58112350 0.722336 -171.8 0.575868 -91.10 0.575868 -91.10 0.723802 149.44
6.58112375 0.725804 -172.2 0.570324 -91.35 0.570324 -91.35 0.727277 149.05
6.58112400 0.729269 -172.6 0.564706 -91.61 0.564706 -91.61 0.730747 148.65
6.58112425 0.732729 -173.0 0.559013 -91.86 0.559013 -91.86 0.734213 148.25
6.58112450 0.736182 -173.4 0.553246 -92.11 0.553246 -92.11 0.737673 147.85
6.58112475 0.739629 -173.8 0.547403 -92.36 0.547403 -92.36 0.741126 147.44
6.58112500 0.743068 -174.2 0.541484 -92.61 0.541484 -92.61 0.744571 147.03
6.58112525 0.746497 -174.7 0.535490 -92.86 0.535490 -92.86 0.748006 146.62
6.58112550 0.749916 -175.1 0.529420 -93.10 0.529420 -93.10 0.751432 146.21
6.58112575 0.753323 -175.5 0.523274 -93.35 0.523274 -93.35 0.754845 145.79
6.58112600 0.756718 -175.9 0.517051 -93.59 0.517051 -93.59 0.758245 145.36
6.58112625 0.760098 -176.4 0.510753 -93.83 0.510753 -93.83 0.761631 144.93
6.58112650 0.763463 -176.8 0.504378 -94.06 0.504378 -94.06 0.765002 144.50
6.58112675 0.766810 -177.3 0.497927 -94.30 0.497927 -94.30 0.768356 144.07
6.58112700 0.770140 -177.7 0.491401 -94.52 0.491401 -94.52 0.771691 143.63
6.58112725 0.773450 -178.2 0.484798 -94.75 0.484798 -94.75 0.775007 143.19
6.58112750 0.776739 -178.6 0.478121 -94.97 0.478121 -94.97 0.778302 142.74
6.58112775 0.780005 -179.1 0.471368 -95.19 0.471368 -95.19 0.781574 142.29
6.58112800 0.783248 -179.5 0.464542 -95.40 0.464542 -95.40 0.784822 141.84
6.58112825 0.786465 179.99 0.457641 -95.60 0.457641 -95.60 0.788045 141.38
6.58112850 0.789656 179.53 0.450667 -95.80 0.450667 -95.80 0.791241 140.92
6.58112875 0.792817 179.05 0.443621 -95.99 0.443621 -95.99 0.794408 140.46
6.58112900 0.795949 178.58 0.436503 -96.17 0.436503 -96.17 0.797546 139.99
6.58112925 0.799049 178.10 0.429315 -96.35 0.429315 -96.35 0.800651 139.52
6.58112950 0.802117 177.61 0.422058 -96.51 0.422058 -96.51 0.803724 139.05
6.58112975 0.805149 177.13 0.414732 -96.67 0.414732 -96.67 0.806761 138.57
6.58113000 0.808145 176.64 0.407339 -96.82 0.407339 -96.82 0.809762 138.09
6.58113025 0.811103 176.14 0.399882 -96.95 0.399882 -96.95 0.812725 137.61
6.58113050 0.814021 175.65 0.392361 -97.07 0.392361 -97.07 0.815649 137.12
6.58113075 0.816898 175.15 0.384778 -97.18 0.384778 -97.18 0.818531 136.63
6.58113100 0.819732 174.64 0.377135 -97.27 0.377135 -97.27 0.821370 136.14
6.58113125 0.822522 174.14 0.369436 -97.34 0.369436 -97.34 0.824164 135.64
6.58113150 0.825265 173.63 0.361681 -97.40 0.361681 -97.40 0.826912 135.14
6.58113175 0.827961 173.12 0.353874 -97.44 0.353874 -97.44 0.829612 134.64