! Sonnet Data File
! From: em Version : 14.52
! From Project: w2
! Data is De-embedded 
! Data File Written: 07/07/2018 02:33:34
!< HDATE 07/02/2018 15:58:45
!< MDATE 07/06/2018 18:05:09
# GHZ S MA R 50.00000
6.00000000 0.022292 51.417 0.999751 -40.41 0.999751 -40.41 0.022292 47.759
!< P1 F=6.0 Eeff=(5.67089793 -5.1692e-6) Z0=(51.6119823 2.3525e-5) R=0.00804793 C=0.00301436 
!< P2 F=6.0 Eeff=(5.67089793 -5.1692e-6) Z0=(51.6119823 2.3525e-5) R=0.00804793 C=0.00301436 
6.00500000 0.022307 51.386 0.999751 -40.45 0.999751 -40.45 0.022307 47.724
6.01000000 0.022323 51.355 0.999751 -40.48 0.999751 -40.48 0.022322 47.688
6.01500000 0.022338 51.323 0.999751 -40.51 0.999751 -40.51 0.022337 47.653
6.02000000 0.022353 51.292 0.999750 -40.55 0.999750 -40.55 0.022352 47.618
6.02500000 0.022369 51.260 0.999750 -40.58 0.999750 -40.58 0.022367 47.582
6.03000000 0.022384 51.229 0.999750 -40.61 0.999750 -40.61 0.022383 47.547
6.03500000 0.022400 51.197 0.999750 -40.65 0.999750 -40.65 0.022398 47.512
6.04000000 0.022415 51.166 0.999749 -40.68 0.999749 -40.68 0.022413 47.477
6.04500000 0.022430 51.134 0.999749 -40.72 0.999749 -40.72 0.022428 47.441
6.05000000 0.022445 51.103 0.999749 -40.75 0.999749 -40.75 0.022443 47.406
6.05500000 0.022461 51.071 0.999749 -40.78 0.999749 -40.78 0.022458 47.371
6.06000000 0.022476 51.040 0.999748 -40.82 0.999748 -40.82 0.022473 47.336
6.06500000 0.022491 51.008 0.999748 -40.85 0.999748 -40.85 0.022488 47.300
6.07000000 0.022507 50.976 0.999748 -40.88 0.999748 -40.88 0.022503 47.265
6.07500000 0.022522 50.945 0.999748 -40.92 0.999748 -40.92 0.022518 47.230
6.08000000 0.022537 50.913 0.999747 -40.95 0.999747 -40.95 0.022533 47.195
6.08500000 0.022552 50.881 0.999747 -40.99 0.999747 -40.99 0.022548 47.160
6.09000000 0.022567 50.849 0.999747 -41.02 0.999747 -41.02 0.022563 47.124
6.09500000 0.022582 50.818 0.999746 -41.05 0.999746 -41.05 0.022578 47.089
6.10000000 0.022598 50.786 0.999746 -41.09 0.999746 -41.09 0.022593 47.054
6.10500000 0.022613 50.754 0.999746 -41.12 0.999746 -41.12 0.022608 47.019
6.11000000 0.022628 50.722 0.999746 -41.15 0.999746 -41.15 0.022623 46.984
6.11500000 0.022643 50.690 0.999745 -41.19 0.999745 -41.19 0.022638 46.948
6.12000000 0.022658 50.658 0.999745 -41.22 0.999745 -41.22 0.022653 46.913
6.12500000 0.022673 50.626 0.999745 -41.25 0.999745 -41.25 0.022668 46.878
6.13000000 0.022688 50.594 0.999745 -41.29 0.999745 -41.29 0.022683 46.843
6.13500000 0.022703 50.562 0.999744 -41.32 0.999744 -41.32 0.022698 46.808
6.14000000 0.022718 50.530 0.999744 -41.36 0.999744 -41.36 0.022713 46.773
6.14500000 0.022733 50.498 0.999744 -41.39 0.999744 -41.39 0.022728 46.737
6.15000000 0.022748 50.466 0.999743 -41.42 0.999743 -41.42 0.022743 46.702
6.15500000 0.022763 50.434 0.999743 -41.46 0.999743 -41.46 0.022757 46.667
6.16000000 0.022777 50.402 0.999743 -41.49 0.999743 -41.49 0.022772 46.632
6.16500000 0.022792 50.370 0.999742 -41.52 0.999742 -41.52 0.022787 46.597
6.17000000 0.022807 50.338 0.999742 -41.56 0.999742 -41.56 0.022802 46.562
6.17500000 0.022822 50.306 0.999742 -41.59 0.999742 -41.59 0.022817 46.527
6.18000000 0.022837 50.273 0.999741 -41.63 0.999741 -41.63 0.022831 46.492
6.18500000 0.022852 50.241 0.999741 -41.66 0.999741 -41.66 0.022846 46.457
6.19000000 0.022866 50.209 0.999741 -41.69 0.999741 -41.69 0.022861 46.422
6.19500000 0.022881 50.177 0.999741 -41.73 0.999741 -41.73 0.022876 46.386
6.20000000 0.022896 50.144 0.999740 -41.76 0.999740 -41.76 0.022890 46.351
6.20500000 0.022910 50.112 0.999740 -41.79 0.999740 -41.79 0.022905 46.316
6.21000000 0.022925 50.080 0.999740 -41.83 0.999740 -41.83 0.022920 46.281
6.21500000 0.022940 50.047 0.999739 -41.86 0.999739 -41.86 0.022934 46.246
6.22000000 0.022954 50.015 0.999739 -41.90 0.999739 -41.90 0.022949 46.211
6.22500000 0.022969 49.982 0.999739 -41.93 0.999739 -41.93 0.022963 46.176
6.23000000 0.022983 49.950 0.999738 -41.96 0.999738 -41.96 0.022978 46.141
6.23500000 0.022998 49.917 0.999738 -42.00 0.999738 -42.00 0.022993 46.106
6.24000000 0.023012 49.885 0.999738 -42.03 0.999738 -42.03 0.023007 46.071
6.24500000 0.023027 49.852 0.999737 -42.06 0.999737 -42.06 0.023022 46.037
6.25000000 0.023041 49.820 0.999737 -42.10 0.999737 -42.10 0.023036 46.002
6.25500000 0.023056 49.787 0.999737 -42.13 0.999737 -42.13 0.023051 45.967
6.26000000 0.023070 49.755 0.999736 -42.16 0.999736 -42.16 0.023065 45.932
6.26500000 0.023085 49.722 0.999736 -42.20 0.999736 -42.20 0.023079 45.897
6.27000000 0.023099 49.689 0.999736 -42.23 0.999736 -42.23 0.023094 45.862
6.27500000 0.023113 49.657 0.999735 -42.27 0.999735 -42.27 0.023108 45.827
6.28000000 0.023128 49.624 0.999735 -42.30 0.999735 -42.30 0.023122 45.792
6.28500000 0.023142 49.591 0.999734 -42.33 0.999734 -42.33 0.023137 45.758
6.29000000 0.023156 49.558 0.999734 -42.37 0.999734 -42.37 0.023151 45.723
6.29500000 0.023170 49.526 0.999734 -42.40 0.999734 -42.40 0.023165 45.688
6.30000000 0.023184 49.493 0.999733 -42.43 0.999733 -42.43 0.023179 45.653
6.30500000 0.023198 49.460 0.999733 -42.47 0.999733 -42.47 0.023194 45.618
6.31000000 0.023212 49.427 0.999733 -42.50 0.999733 -42.50 0.023208 45.584
6.31500000 0.023227 49.394 0.999732 -42.54 0.999732 -42.54 0.023222 45.549
6.32000000 0.023241 49.361 0.999732 -42.57 0.999732 -42.57 0.023236 45.514
6.32500000 0.023254 49.328 0.999732 -42.60 0.999732 -42.60 0.023250 45.480
6.33000000 0.023268 49.295 0.999731 -42.64 0.999731 -42.64 0.023264 45.445
6.33500000 0.023282 49.262 0.999731 -42.67 0.999731 -42.67 0.023278 45.411
6.34000000 0.023296 49.229 0.999731 -42.70 0.999731 -42.70 0.023292 45.376
6.34500000 0.023310 49.195 0.999730 -42.74 0.999730 -42.74 0.023306 45.342
6.35000000 0.023324 49.162 0.999730 -42.77 0.999730 -42.77 0.023319 45.307
6.35500000 0.023337 49.129 0.999730 -42.81 0.999730 -42.81 0.023333 45.273
6.36000000 0.023351 49.096 0.999729 -42.84 0.999729 -42.84 0.023347 45.238
6.36500000 0.023364 49.062 0.999729 -42.87 0.999729 -42.87 0.023361 45.204
6.37000000 0.023378 49.029 0.999728 -42.91 0.999728 -42.91 0.023374 45.170
6.37500000 0.023391 48.995 0.999728 -42.94 0.999728 -42.94 0.023388 45.135
6.38000000 0.023405 48.962 0.999728 -42.97 0.999728 -42.97 0.023401 45.101
6.38500000 0.023418 48.928 0.999727 -43.01 0.999727 -43.01 0.023415 45.067
6.39000000 0.023431 48.895 0.999727 -43.04 0.999727 -43.04 0.023428 45.033
6.39500000 0.023445 48.861 0.999727 -43.08 0.999727 -43.08 0.023441 44.999
6.40000000 0.023458 48.827 0.999726 -43.11 0.999726 -43.11 0.023454 44.965
6.40500000 0.023471 48.793 0.999726 -43.14 0.999726 -43.14 0.023467 44.931
6.41000000 0.023484 48.759 0.999726 -43.18 0.999726 -43.18 0.023481 44.897
6.41500000 0.023496 48.725 0.999725 -43.21 0.999725 -43.21 0.023493 44.863
6.42000000 0.023509 48.691 0.999725 -43.24 0.999725 -43.24 0.023506 44.829
6.42500000 0.023522 48.657 0.999725 -43.28 0.999725 -43.28 0.023519 44.796
6.43000000 0.023534 48.623 0.999724 -43.31 0.999724 -43.31 0.023532 44.762
6.43500000 0.023547 48.588 0.999724 -43.35 0.999724 -43.35 0.023544 44.729
6.44000000 0.023559 48.554 0.999724 -43.38 0.999724 -43.38 0.023557 44.695
6.44500000 0.023571 48.519 0.999723 -43.41 0.999723 -43.41 0.023569 44.662
6.45000000 0.023583 48.484 0.999723 -43.45 0.999723 -43.45 0.023581 44.629
6.45500000 0.023595 48.449 0.999723 -43.48 0.999723 -43.48 0.023593 44.596
6.46000000 0.023607 48.414 0.999722 -43.52 0.999722 -43.52 0.023605 44.563
6.46500000 0.023619 48.379 0.999722 -43.55 0.999722 -43.55 0.023616 44.530
6.47000000 0.023630 48.343 0.999722 -43.58 0.999722 -43.58 0.023628 44.498
6.47500000 0.023641 48.308 0.999721 -43.62 0.999721 -43.62 0.023639 44.466
6.48000000 0.023652 48.272 0.999721 -43.65 0.999721 -43.65 0.023650 44.433
6.48500000 0.023663 48.236 0.999721 -43.68 0.999721 -43.68 0.023661 44.401
6.49000000 0.023673 48.199 0.999720 -43.72 0.999720 -43.72 0.023671 44.370
6.49500000 0.023683 48.163 0.999720 -43.75 0.999720 -43.75 0.023682 44.338
6.50000000 0.023693 48.126 0.999720 -43.79 0.999720 -43.79 0.023692 44.307
6.50500000 0.023703 48.088 0.999720 -43.82 0.999720 -43.82 0.023701 44.276
6.51000000 0.023712 48.050 0.999719 -43.85 0.999719 -43.85 0.023710 44.246
6.51500000 0.023720 48.012 0.999719 -43.89 0.999719 -43.89 0.023719 44.215
6.52000000 0.023728 47.974 0.999719 -43.92 0.999719 -43.92 0.023727 44.186
6.52500000 0.023736 47.934 0.999719 -43.96 0.999719 -43.96 0.023735 44.157
6.53000000 0.023743 47.895 0.999718 -43.99 0.999718 -43.99 0.023742 44.128
6.53500000 0.023749 47.854 0.999718 -44.03 0.999718 -44.03 0.023748 44.100
6.54000000 0.023755 47.813 0.999718 -44.06 0.999718 -44.06 0.023754 44.073
6.54500000 0.023759 47.770 0.999718 -44.09 0.999718 -44.09 0.023759 44.046
6.55000000 0.023763 47.727 0.999718 -44.13 0.999718 -44.13 0.023762 44.021
6.55500000 0.023765 47.682 0.999718 -44.16 0.999718 -44.16 0.023765 43.996
6.56000000 0.023766 47.636 0.999718 -44.20 0.999718 -44.20 0.023765 43.973
6.56500000 0.023765 47.588 0.999718 -44.23 0.999718 -44.23 0.023765 43.952
6.57000000 0.023762 47.538 0.999718 -44.27 0.999718 -44.27 0.023762 43.932
6.57500000 0.023757 47.485 0.999718 -44.30 0.999718 -44.30 0.023756 43.915
6.58000000 0.023748 47.429 0.999718 -44.34 0.999718 -44.34 0.023748 43.901
6.58500000 0.023736 47.369 0.999718 -44.37 0.999718 -44.37 0.023736 43.890
6.59000000 0.023719 47.304 0.999718 -44.41 0.999718 -44.41 0.023718 43.884
6.59500000 0.023695 47.232 0.999719 -44.44 0.999719 -44.44 0.023695 43.884
6.60000000 0.023663 47.150 0.999720 -44.48 0.999720 -44.48 0.023663 43.892
6.60500000 0.023619 47.057 0.999721 -44.52 0.999721 -44.52 0.023619 43.911
6.61000000 0.023559 46.945 0.999722 -44.56 0.999722 -44.56 0.023559 43.946
6.61500000 0.023474 46.806 0.999724 -44.60 0.999724 -44.60 0.023474 44.005
6.62000000 0.023350 46.623 0.999727 -44.64 0.999727 -44.64 0.023350 44.104
6.62500000 0.023157 46.362 0.999731 -44.68 0.999731 -44.68 0.023157 44.272
6.63000000 0.022827 45.940 0.999739 -44.74 0.999739 -44.74 0.022827 44.584
6.63500000 0.022159 45.099 0.999753 -44.82 0.999753 -44.82 0.022159 45.274
6.64000000 0.020179 42.371 0.999793 -44.98 0.999793 -44.98 0.020181 47.692
!< P1 F=6.64 Eeff=(5.67085404 -5.1698e-6) Z0=(51.6116744 2.3525e-5) R=0.00727524 C=0.00301433 
!< P2 F=6.64 Eeff=(5.67085404 -5.1698e-6) Z0=(51.6116744 2.3525e-5) R=0.00727524 C=0.00301433 
6.64005000 0.020140 42.311 0.999794 -44.98 0.999794 -44.98 0.020142 47.746
6.64010000 0.020100 42.251 0.999795 -44.98 0.999795 -44.98 0.020102 47.801
6.64015000 0.020059 42.188 0.999796 -44.98 0.999796 -44.98 0.020061 47.858
6.64020000 0.020017 42.125 0.999796 -44.99 0.999796 -44.99 0.020020 47.916
6.64025000 0.019975 42.060 0.999797 -44.99 0.999797 -44.99 0.019977 47.975
6.64030000 0.019931 41.993 0.999798 -44.99 0.999798 -44.99 0.019934 48.036
6.64035000 0.019887 41.924 0.999799 -45.00 0.999799 -45.00 0.019890 48.099
6.64040000 0.019842 41.854 0.999800 -45.00 0.999800 -45.00 0.019845 48.163
6.64045000 0.019796 41.782 0.999800 -45.00 0.999800 -45.00 0.019799 48.229
6.64050000 0.019749 41.707 0.999801 -45.01 0.999801 -45.01 0.019752 48.297
6.64055000 0.019701 41.631 0.999802 -45.01 0.999802 -45.01 0.019704 48.366
6.64060000 0.019652 41.553 0.999803 -45.01 0.999803 -45.01 0.019655 48.438
6.64065000 0.019601 41.473 0.999804 -45.02 0.999804 -45.02 0.019605 48.511
6.64070000 0.019550 41.391 0.999805 -45.02 0.999805 -45.02 0.019553 48.587
6.64075000 0.019498 41.306 0.999806 -45.03 0.999806 -45.03 0.019501 48.664
6.64080000 0.019444 41.219 0.999807 -45.03 0.999807 -45.03 0.019448 48.744
6.64085000 0.019389 41.129 0.999808 -45.03 0.999808 -45.03 0.019393 48.827
6.64090000 0.019333 41.037 0.999809 -45.04 0.999809 -45.04 0.019337 48.911
6.64095000 0.019276 40.942 0.999810 -45.04 0.999810 -45.04 0.019280 48.999
6.64100000 0.019217 40.844 0.999811 -45.05 0.999811 -45.05 0.019221 49.089
6.64105000 0.019157 40.743 0.999812 -45.05 0.999812 -45.05 0.019161 49.182
6.64110000 0.019095 40.639 0.999813 -45.05 0.999813 -45.05 0.019099 49.278
6.64115000 0.019032 40.532 0.999814 -45.06 0.999814 -45.06 0.019036 49.377
6.64120000 0.018967 40.421 0.999815 -45.06 0.999815 -45.06 0.018972 49.479
6.64125000 0.018901 40.307 0.999816 -45.07 0.999816 -45.07 0.018906 49.585
6.64130000 0.018833 40.188 0.999817 -45.07 0.999817 -45.07 0.018838 49.694
6.64135000 0.018764 40.066 0.999819 -45.08 0.999819 -45.08 0.018768 49.807
6.64140000 0.018692 39.940 0.999820 -45.08 0.999820 -45.08 0.018697 49.924
6.64145000 0.018619 39.809 0.999821 -45.09 0.999821 -45.09 0.018624 50.046
6.64150000 0.018543 39.674 0.999822 -45.09 0.999822 -45.09 0.018549 50.171
6.64155000 0.018466 39.533 0.999824 -45.10 0.999824 -45.10 0.018471 50.302
6.64160000 0.018387 39.388 0.999825 -45.10 0.999825 -45.10 0.018392 50.437
6.64165000 0.018305 39.237 0.999826 -45.11 0.999826 -45.11 0.018311 50.578
6.64170000 0.018221 39.080 0.999828 -45.12 0.999828 -45.12 0.018227 50.724
6.64175000 0.018135 38.917 0.999829 -45.12 0.999829 -45.12 0.018141 50.876
6.64180000 0.018046 38.748 0.999830 -45.13 0.999830 -45.13 0.018052 51.034
6.64185000 0.017955 38.572 0.999832 -45.13 0.999832 -45.13 0.017961 51.198
6.64190000 0.017861 38.388 0.999833 -45.14 0.999833 -45.14 0.017868 51.370
6.64195000 0.017764 38.197 0.999835 -45.15 0.999835 -45.15 0.017771 51.549
6.64200000 0.017664 37.997 0.999836 -45.15 0.999836 -45.15 0.017672 51.736
6.64205000 0.017561 37.789 0.999838 -45.16 0.999838 -45.16 0.017569 51.931
6.64210000 0.017455 37.571 0.999840 -45.17 0.999840 -45.17 0.017463 52.136
6.64215000 0.017346 37.343 0.999841 -45.18 0.999841 -45.18 0.017354 52.350
6.64220000 0.017233 37.105 0.999843 -45.18 0.999843 -45.18 0.017242 52.574
6.64225000 0.017117 36.854 0.999845 -45.19 0.999845 -45.19 0.017126 52.810
6.64230000 0.016996 36.592 0.999846 -45.20 0.999846 -45.20 0.017006 53.057
6.64235000 0.016872 36.316 0.999848 -45.21 0.999848 -45.21 0.016882 53.318
6.64240000 0.016743 36.026 0.999850 -45.22 0.999850 -45.22 0.016753 53.592
6.64245000 0.016610 35.720 0.999852 -45.23 0.999852 -45.23 0.016621 53.881
6.64250000 0.016472 35.398 0.999854 -45.24 0.999854 -45.24 0.016484 54.186
6.64255000 0.016330 35.057 0.999856 -45.25 0.999856 -45.25 0.016342 54.509
6.64260000 0.016182 34.697 0.999858 -45.26 0.999858 -45.26 0.016195 54.851
6.64265000 0.016029 34.315 0.999860 -45.27 0.999860 -45.27 0.016042 55.214
6.64270000 0.015871 33.910 0.999862 -45.28 0.999862 -45.28 0.015884 55.600
6.64275000 0.015706 33.479 0.999864 -45.29 0.999864 -45.29 0.015720 56.010
6.64280000 0.015535 33.020 0.999866 -45.31 0.999866 -45.31 0.015550 56.448
6.64285000 0.015358 32.530 0.999868 -45.32 0.999868 -45.32 0.015374 56.916
6.64290000 0.015173 32.006 0.999870 -45.33 0.999870 -45.33 0.015191 57.417
6.64295000 0.014982 31.445 0.999872 -45.35 0.999872 -45.35 0.015000 57.955
6.64300000 0.014783 30.841 0.999875 -45.36 0.999875 -45.36 0.014802 58.534
6.64305000 0.014576 30.191 0.999877 -45.38 0.999877 -45.38 0.014596 59.158
6.64310000 0.014360 29.490 0.999879 -45.39 0.999879 -45.39 0.014382 59.833
6.64315000 0.014136 28.729 0.999882 -45.41 0.999882 -45.41 0.014159 60.566
6.64320000 0.013902 27.904 0.999884 -45.43 0.999884 -45.43 0.013927 61.362
6.64325000 0.013659 27.004 0.999886 -45.45 0.999886 -45.45 0.013686 62.231
6.64330000 0.013407 26.020 0.999888 -45.47 0.999888 -45.47 0.013435 63.183
6.64335000 0.013144 24.940 0.999891 -45.49 0.999891 -45.49 0.013175 64.229
6.64340000 0.012870 23.750 0.999893 -45.51 0.999893 -45.51 0.012904 65.383
6.64345000 0.012587 22.434 0.999895 -45.53 0.999895 -45.53 0.012623 66.661
6.64350000 0.012292 20.971 0.999897 -45.56 0.999897 -45.56 0.012332 68.084
6.64355000 0.011988 19.338 0.999899 -45.58 0.999899 -45.58 0.012032 69.674
6.64360000 0.011675 17.505 0.999901 -45.61 0.999901 -45.61 0.011722 71.459
6.64365000 0.011353 15.439 0.999902 -45.64 0.999902 -45.64 0.011405 73.475
6.64370000 0.011025 13.098 0.999904 -45.67 0.999904 -45.67 0.011083 75.760
6.64375000 0.010694 10.431 0.999905 -45.71 0.999905 -45.71 0.010758 78.364
6.64380000 0.010365 7.3794 0.999905 -45.75 0.999905 -45.75 0.010436 81.345
6.64385000 0.010043 3.8733 0.999905 -45.79 0.999905 -45.79 0.010123 84.769
6.64390000 0.009739 -0.165 0.999904 -45.83 0.999904 -45.83 0.009828 88.710
6.64395000 0.009466 -4.819 0.999903 -45.88 0.999903 -45.88 0.009565 93.246
6.64400000 0.009241 -10.17 0.999900 -45.93 0.999900 -45.93 0.009352 98.450
6.64405000 0.009090 -16.26 0.999896 -45.99 0.999896 -45.99 0.009213 104.37
6.64410000 0.009043 -23.12 0.999890 -46.05 0.999890 -46.05 0.009179 111.00
6.64415000 0.009138 -30.65 0.999882 -46.12 0.999882 -46.12 0.009288 118.28
6.64420000 0.009420 -38.69 0.999871 -46.19 0.999871 -46.19 0.009581 126.02
6.64425000 0.009933 -46.96 0.999855 -46.28 0.999855 -46.28 0.010105 133.96
6.64430000 0.010724 -55.13 0.999835 -46.37 0.999835 -46.37 0.010903 141.78
6.64435000 0.011837 -62.92 0.999808 -46.48 0.999808 -46.48 0.012022 149.21
6.64440000 0.013317 -70.11 0.999771 -46.60 0.999771 -46.60 0.013506 156.03
6.64445000 0.015219 -76.58 0.999722 -46.74 0.999722 -46.74 0.015410 162.13
6.64450000 0.017611 -82.33 0.999655 -46.91 0.999655 -46.91 0.017805 167.46
6.64455000 0.020592 -87.39 0.999562 -47.10 0.999562 -47.10 0.020789 172.07
6.64460000 0.024303 -91.86 0.999432 -47.34 0.999432 -47.34 0.024505 176.01
6.64465000 0.028954 -95.83 0.999245 -47.62 0.999245 -47.62 0.029163 179.34
6.64470000 0.034864 -99.40 0.998969 -47.98 0.998969 -47.98 0.035083 -177.9
6.64475000 0.042538 -102.7 0.998545 -48.43 0.998545 -48.43 0.042770 -175.6
6.64480000 0.052811 -105.8 0.997860 -49.03 0.997860 -49.03 0.053065 -173.9
6.64485000 0.067175 -108.8 0.996677 -49.87 0.996677 -49.87 0.067459 -172.7
6.64490000 0.088540 -112.1 0.994431 -51.10 0.994431 -51.10 0.088873 -172.2
6.64495000 0.123437 -116.1 0.989497 -53.12 0.989497 -53.12 0.123850 -172.8
6.64500000 0.189872 -122.0 0.975684 -56.99 0.975684 -56.99 0.190441 -175.7
6.64505000 0.360895 -135.1 0.911497 -67.18 0.911497 -67.18 0.361868 173.99
!< P1 F=6.64505 Eeff=(5.67085334 -5.1692e-6) Z0=(51.6116739 2.3525e-5) R=0.00727104 C=0.00301433 
!< P2 F=6.64505 Eeff=(5.67085334 -5.1692e-6) Z0=(51.6116739 2.3525e-5) R=0.00727104 C=0.00301433 
6.64505050 0.363767 -135.3 0.910035 -67.36 0.910035 -67.36 0.364747 173.80
6.64505100 0.366677 -135.5 0.908539 -67.54 0.908539 -67.54 0.367664 173.60
6.64505150 0.369626 -135.7 0.907009 -67.72 0.907009 -67.72 0.370620 173.40
6.64505200 0.372615 -136.0 0.905444 -67.90 0.905444 -67.90 0.373615 173.20
6.64505250 0.375644 -136.2 0.903842 -68.09 0.903842 -68.09 0.376651 173.00
6.64505300 0.378714 -136.4 0.902202 -68.28 0.902202 -68.28 0.379728 172.79
6.64505350 0.381825 -136.7 0.900524 -68.47 0.900524 -68.47 0.382847 172.58
6.64505400 0.384979 -136.9 0.898805 -68.66 0.898805 -68.66 0.386009 172.36
6.64505450 0.388176 -137.1 0.897046 -68.86 0.897046 -68.86 0.389213 172.14
6.64505500 0.391417 -137.4 0.895245 -69.06 0.895245 -69.06 0.392461 171.92
6.64505550 0.394702 -137.6 0.893400 -69.27 0.893400 -69.27 0.395754 171.70
6.64505600 0.398032 -137.9 0.891510 -69.47 0.891510 -69.47 0.399092 171.47
6.64505650 0.401408 -138.1 0.889574 -69.68 0.889574 -69.68 0.402476 171.23
6.64505700 0.404831 -138.4 0.887590 -69.90 0.887590 -69.90 0.405907 170.99
6.64505750 0.408301 -138.7 0.885558 -70.11 0.885558 -70.11 0.409385 170.75
6.64505800 0.411819 -138.9 0.883475 -70.33 0.883475 -70.33 0.412912 170.51
6.64505850 0.415387 -139.2 0.881340 -70.55 0.881340 -70.55 0.416487 170.26
6.64505900 0.419003 -139.5 0.879152 -70.78 0.879152 -70.78 0.420113 170.00
6.64505950 0.422671 -139.8 0.876908 -71.01 0.876908 -71.01 0.423788 169.74
6.64506000 0.426389 -140.1 0.874608 -71.24 0.874608 -71.24 0.427516 169.48
6.64506050 0.430160 -140.4 0.872249 -71.48 0.872249 -71.48 0.431295 169.21
6.64506100 0.433983 -140.7 0.869829 -71.72 0.869829 -71.72 0.435127 168.94
6.64506150 0.437860 -141.0 0.867347 -71.97 0.867347 -71.97 0.439013 168.66
6.64506200 0.441791 -141.3 0.864801 -72.22 0.864801 -72.22 0.442953 168.38
6.64506250 0.445777 -141.6 0.862188 -72.47 0.862188 -72.47 0.446949 168.09
6.64506300 0.449819 -141.9 0.859507 -72.73 0.859507 -72.73 0.451001 167.80
6.64506350 0.453918 -142.2 0.856755 -72.99 0.856755 -72.99 0.455109 167.50
6.64506400 0.458074 -142.5 0.853931 -73.25 0.853931 -73.25 0.459275 167.20
6.64506450 0.462289 -142.9 0.851031 -73.52 0.851031 -73.52 0.463499 166.89
6.64506500 0.466562 -143.2 0.848054 -73.80 0.848054 -73.80 0.467782 166.58
6.64506550 0.470895 -143.6 0.844997 -74.07 0.844997 -74.07 0.472125 166.26
6.64506600 0.475288 -143.9 0.841858 -74.36 0.841858 -74.36 0.476529 165.93
6.64506650 0.479743 -144.3 0.838634 -74.64 0.838634 -74.64 0.480994 165.60
6.64506700 0.484259 -144.6 0.835321 -74.94 0.835321 -74.94 0.485521 165.26
6.64506750 0.488838 -145.0 0.831918 -75.23 0.831918 -75.23 0.490110 164.92
6.64506800 0.493479 -145.4 0.828422 -75.53 0.828422 -75.53 0.494762 164.56
6.64506850 0.498185 -145.8 0.824829 -75.84 0.824829 -75.84 0.499479 164.21
6.64506900 0.502955 -146.1 0.821137 -76.15 0.821137 -76.15 0.504260 163.84
6.64506950 0.507789 -146.5 0.817342 -76.47 0.817342 -76.47 0.509105 163.47
6.64507000 0.512689 -146.9 0.813441 -76.79 0.813441 -76.79 0.514017 163.09
6.64507050 0.517655 -147.4 0.809430 -77.12 0.809430 -77.12 0.518994 162.71
6.64507100 0.522687 -147.8 0.805307 -77.45 0.805307 -77.45 0.524037 162.32
6.64507150 0.527785 -148.2 0.801067 -77.79 0.801067 -77.79 0.529148 161.92
6.64507200 0.532950 -148.6 0.796707 -78.13 0.796707 -78.13 0.534325 161.51
6.64507250 0.538183 -149.1 0.792223 -78.48 0.792223 -78.48 0.539569 161.09
6.64507300 0.543483 -149.5 0.787611 -78.83 0.787611 -78.83 0.544881 160.67
6.64507350 0.548850 -150.0 0.782867 -79.19 0.782867 -79.19 0.550261 160.24
6.64507400 0.554284 -150.4 0.777987 -79.56 0.777987 -79.56 0.555708 159.80
6.64507450 0.559786 -150.9 0.772966 -79.93 0.772966 -79.93 0.561222 159.35
6.64507500 0.565354 -151.4 0.767801 -80.31 0.767801 -80.31 0.566804 158.89
6.64507550 0.570990 -151.9 0.762487 -80.69 0.762487 -80.69 0.572452 158.42
6.64507600 0.576692 -152.4 0.757019 -81.08 0.757019 -81.08 0.578167 157.95
6.64507650 0.582459 -152.9 0.751393 -81.47 0.751393 -81.47 0.583948 157.46
6.64507700 0.588292 -153.4 0.745604 -81.87 0.745604 -81.87 0.589794 156.97
6.64507750 0.594189 -153.9 0.739646 -82.28 0.739646 -82.28 0.595705 156.46
6.64507800 0.600149 -154.5 0.733516 -82.69 0.733516 -82.69 0.601679 155.95
6.64507850 0.606172 -155.0 0.727207 -83.11 0.727207 -83.11 0.607715 155.42
6.64507900 0.612255 -155.6 0.720716 -83.54 0.720716 -83.54 0.613812 154.89
6.64507950 0.618398 -156.1 0.714035 -83.97 0.714035 -83.97 0.619969 154.34
6.64508000 0.624598 -156.7 0.707161 -84.40 0.707161 -84.40 0.626183 153.79
6.64508050 0.630853 -157.3 0.700089 -84.85 0.700089 -84.85 0.632453 153.22
6.64508100 0.637162 -157.9 0.692811 -85.29 0.692811 -85.29 0.638776 152.64
6.64508150 0.643522 -158.5 0.685324 -85.75 0.685324 -85.75 0.645151 152.06
6.64508200 0.649931 -159.2 0.677622 -86.20 0.677622 -86.20 0.651574 151.46
6.64508250 0.656384 -159.8 0.669699 -86.67 0.669699 -86.67 0.658042 150.84
6.64508300 0.662880 -160.4 0.661550 -87.14 0.661550 -87.14 0.664553 150.22
6.64508350 0.669414 -161.1 0.653170 -87.61 0.653170 -87.61 0.671102 149.58
6.64508400 0.675983 -161.8 0.644553 -88.08 0.644553 -88.08 0.677686 148.94
6.64508450 0.682583 -162.5 0.635695 -88.56 0.635695 -88.56 0.684300 148.28
6.64508500 0.686007 -162.8 0.631027 -88.81 0.631027 -88.81 0.687732 147.93
!< P1 F=6.645085 Eeff=(5.67085378 -5.1692e-6) Z0=(51.611673 2.3525e-5) R=0.00726757 C=0.00301433 
!< P2 F=6.645085 Eeff=(5.67085378 -5.1692e-6) Z0=(51.611673 2.3525e-5) R=0.00726757 C=0.00301433 
6.64508520 0.693866 -163.6 0.620067 -89.39 0.620067 -89.39 0.695609 147.12
!< P1 F=6.6450852 Eeff=(5.67085392 -5.1692e-6) Z0=(51.6116719 2.3525e-5) R=0.00726706 C=0.00301433 
!< P2 F=6.6450852 Eeff=(5.67085392 -5.1692e-6) Z0=(51.6116719 2.3525e-5) R=0.00726706 C=0.00301433 
6.64508540 0.696588 -163.9 0.616197 -89.59 0.616197 -89.59 0.698336 146.84
6.64508560 0.699312 -164.2 0.612284 -89.79 0.612284 -89.79 0.701067 146.56
6.64508580 0.702039 -164.5 0.608328 -89.99 0.608328 -89.99 0.703800 146.27
6.64508600 0.704767 -164.8 0.604328 -90.19 0.604328 -90.19 0.706534 145.98
6.64508620 0.707497 -165.1 0.600284 -90.39 0.600284 -90.39 0.709270 145.69
6.64508640 0.710228 -165.4 0.596197 -90.59 0.596197 -90.59 0.712007 145.40
6.64508660 0.712959 -165.7 0.592065 -90.79 0.592065 -90.79 0.714744 145.10
6.64508680 0.715690 -166.0 0.587888 -90.99 0.587888 -90.99 0.717482 144.80
6.64508700 0.718421 -166.3 0.583666 -91.19 0.583666 -91.19 0.720219 144.50
6.64508720 0.721151 -166.7 0.579399 -91.39 0.579399 -91.39 0.722955 144.20
6.64508740 0.723880 -167.0 0.575086 -91.59 0.575086 -91.59 0.725690 143.90
6.64508760 0.726608 -167.3 0.570728 -91.79 0.570728 -91.79 0.728424 143.59
6.64508780 0.729333 -167.6 0.566324 -92.00 0.566324 -92.00 0.731155 143.28
6.64508800 0.732055 -167.9 0.561874 -92.19 0.561874 -92.19 0.733883 142.97
6.64508820 0.734774 -168.3 0.557377 -92.39 0.557377 -92.39 0.736608 142.66
6.64508840 0.737489 -168.6 0.552834 -92.59 0.552834 -92.59 0.739330 142.34
6.64508860 0.740200 -168.9 0.548245 -92.79 0.548245 -92.79 0.742047 142.03
6.64508880 0.742906 -169.2 0.543609 -92.99 0.543609 -92.99 0.744759 141.71
6.64508900 0.745607 -169.6 0.538925 -93.18 0.538925 -93.18 0.747465 141.38
6.64508920 0.748302 -169.9 0.534195 -93.38 0.534195 -93.38 0.750166 141.06
6.64508940 0.750990 -170.2 0.529418 -93.57 0.529418 -93.57 0.752860 140.73
6.64508960 0.753671 -170.6 0.524594 -93.77 0.524594 -93.77 0.755547 140.40
6.64508980 0.756344 -170.9 0.519722 -93.96 0.519722 -93.96 0.758226 140.07
6.64509000 0.759009 -171.3 0.514804 -94.15 0.514804 -94.15 0.760897 139.74
6.64509020 0.761665 -171.6 0.509838 -94.34 0.509838 -94.34 0.763558 139.40
6.64509040 0.764311 -171.9 0.504825 -94.53 0.504825 -94.53 0.766210 139.07
6.64509060 0.766947 -172.3 0.499765 -94.71 0.499765 -94.71 0.768852 138.73
6.64509080 0.769572 -172.6 0.494658 -94.89 0.494658 -94.89 0.771483 138.38
6.64509100 0.772185 -173.0 0.489503 -95.07 0.489503 -95.07 0.774101 138.04
6.64509120 0.774786 -173.4 0.484302 -95.25 0.484302 -95.25 0.776708 137.69
6.64509140 0.777374 -173.7 0.479055 -95.43 0.479055 -95.43 0.779302 137.34
6.64509160 0.779948 -174.1 0.473760 -95.60 0.473760 -95.60 0.781881 136.99
6.64509180 0.782508 -174.4 0.468420 -95.77 0.468420 -95.77 0.784447 136.64
6.64509200 0.785052 -174.8 0.463033 -95.94 0.463033 -95.94 0.786997 136.28
6.64509220 0.787581 -175.2 0.457601 -96.10 0.457601 -96.10 0.789531 135.93
6.64509240 0.790093 -175.5 0.452124 -96.26 0.452124 -96.26 0.792049 135.57
6.64509260 0.792588 -175.9 0.446601 -96.41 0.446601 -96.41 0.794549 135.20
6.64509280 0.795065 -176.3 0.441033 -96.56 0.441033 -96.56 0.797032 134.84
6.64509300 0.797523 -176.7 0.435422 -96.71 0.435422 -96.71 0.799495 134.47
6.64509320 0.799962 -177.0 0.429767 -96.85 0.429767 -96.85 0.801938 134.10
6.64509340 0.802380 -177.4 0.424068 -96.98 0.424068 -96.98 0.804362 133.73
6.64509360 0.804776 -177.8 0.418327 -97.11 0.418327 -97.11 0.806764 133.36
6.64509380 0.807151 -178.2 0.412544 -97.23 0.412544 -97.23 0.809144 132.99
6.64509400 0.809503 -178.6 0.406719 -97.35 0.406719 -97.35 0.811501 132.61
6.64509420 0.811832 -179.0 0.400854 -97.46 0.400854 -97.46 0.813834 132.23
6.64509440 0.814136 -179.4 0.394950 -97.56 0.394950 -97.56 0.816144 131.85
6.64509460 0.816416 -179.7 0.389006 -97.65 0.389006 -97.65 0.818428 131.46
6.64509480 0.818669 179.86 0.383025 -97.74 0.383025 -97.74 0.820686 131.08
6.64509500 0.820896 179.46 0.377006 -97.81 0.377006 -97.81 0.822917 130.69
6.64509520 0.823095 179.06 0.370952 -97.88 0.370952 -97.88 0.825121 130.30
6.64509540 0.825265 178.66 0.364863 -97.93 0.364863 -97.93 0.827296 129.91
6.64509560 0.827407 178.26 0.358740 -97.97 0.358740 -97.97 0.829442 129.52
6.64509580 0.829518 177.86 0.352586 -98.00 0.352586 -98.00 0.831558 129.12
6.64509600 0.831599 177.45 0.346400 -98.02 0.346400 -98.02 0.833643 128.73
6.64509620 0.833648 177.04 0.340186 -98.02 0.340186 -98.02 0.835696 128.33
6.64509640 0.835665 176.63 0.333943 -98.01 0.333943 -98.01 0.837717 127.93
6.64509660 0.837649 176.22 0.327675 -97.99 0.327675 -97.99 0.839705 127.53
6.64509680 0.839599 175.81 0.321384 -97.94 0.321384 -97.94 0.841659 127.12
6.64509700 0.841514 175.39 0.315070 -97.88 0.315070 -97.88 0.843578 126.72
6.64509720 0.843393 174.98 0.308736 -97.79 0.308736 -97.79 0.845461 126.31
6.64509740 0.845237 174.56 0.302385 -97.69 0.302385 -97.69 0.847308 125.90
6.64509760 0.847043 174.14 0.296020 -97.56 0.296020 -97.56 0.849118 125.49
6.64509780 0.848811 173.72 0.289642 -97.41 0.289642 -97.41 0.850890 125.08
6.64509800 0.850541 173.30 0.283254 -97.24 0.283254 -97.24 0.852623 124.66
6.64509820 0.852231 172.87 0.276861 -97.03 0.276861 -97.03 0.854316 124.25
6.64509840 0.853882 172.44 0.270465 -96.79 0.270465 -96.79 0.855970 123.83
6.64509860 0.855491 172.02 0.264070 -96.52 0.264070 -96.52 0.857583 123.41
6.64509880 0.857059 171.59 0.257680 -96.22 0.257680 -96.22 0.859154 122.99
6.64509900 0.858585 171.16 0.251299 -95.88 0.251299 -95.88 0.860683 122.57
6.64509920 0.860068 170.73 0.244931 -95.49 0.244931 -95.49 0.862168 122.15
6.64509940 0.861508 170.29 0.238583 -95.07 0.238583 -95.07 0.863611 121.73
6.64509960 0.862903 169.86 0.232260 -94.59 0.232260 -94.59 0.865009 121.30
6.64509980 0.864254 169.42 0.225968 -94.06 0.225968 -94.06 0.866362 120.88
6.64510000 0.865559 168.99 0.219713 -93.48 0.219713 -93.48 0.867669 120.45
6.64510020 0.866818 168.55 0.213503 -92.83 0.213503 -92.83 0.868931 120.02
6.64510040 0.868031 168.11 0.207345 -92.12 0.207345 -92.12 0.870145 119.59
6.64510060 0.869196 167.67 0.201250 -91.34 0.201250 -91.34 0.871313 119.16
6.64510080 0.870314 167.23 0.195227 -90.48 0.195227 -90.48 0.872433 118.73
6.64510100 0.871384 166.79 0.189286 -89.53 0.189286 -89.53 0.873504 118.30
6.64510120 0.872405 166.35 0.183439 -88.49 0.183439 -88.49 0.874527 117.87
6.64510140 0.873377 165.90 0.177701 -87.36 0.177701 -87.36 0.875500 117.43
6.64510160 0.874299 165.46 0.172085 -86.12 0.172085 -86.12 0.876424 117.00
6.64510180 0.875171 165.02 0.166608 -84.77 0.166608 -84.77 0.877297 116.56