! Sonnet Data File
! From: em Version : 14.52
! From Project: w2
! Data is De-embedded 
! Data File Written: 07/15/2018 06:38:27
!< HDATE 07/13/2018 23:50:20
!< MDATE 07/15/2018 00:06:15
# GHZ S MA R 50.00000
6.15000000 0.068422 45.266 0.997656 -41.84 0.997656 -41.84 0.068422 51.060
!< P1 F=6.15 Eeff=(5.67116008 -5.1686e-6) Z0=(57.2989942 2.61131e-5) R=0.00789283 C=0.0030054 
!< P2 F=6.15 Eeff=(5.67110246 -5.1686e-6) Z0=(56.0082311 2.55275e-5) R=0.00797455 C=0.00297405 
6.15500000 0.068453 45.221 0.997654 -41.87 0.997654 -41.87 0.068453 51.035
6.16000000 0.068483 45.175 0.997652 -41.91 0.997652 -41.91 0.068483 51.011
6.16500000 0.068512 45.128 0.997650 -41.94 0.997650 -41.94 0.068512 50.987
6.17000000 0.068541 45.081 0.997648 -41.98 0.997648 -41.98 0.068541 50.964
6.17500000 0.068568 45.034 0.997646 -42.01 0.997646 -42.01 0.068568 50.941
6.18000000 0.068594 44.985 0.997644 -42.05 0.997644 -42.05 0.068594 50.919
6.18500000 0.068619 44.936 0.997643 -42.08 0.997643 -42.08 0.068619 50.897
6.19000000 0.068643 44.887 0.997641 -42.12 0.997641 -42.12 0.068643 50.876
6.19500000 0.068665 44.836 0.997639 -42.15 0.997639 -42.15 0.068665 50.855
6.20000000 0.068686 44.785 0.997638 -42.19 0.997638 -42.19 0.068686 50.835
6.20500000 0.068705 44.732 0.997637 -42.23 0.997637 -42.23 0.068705 50.816
6.21000000 0.068722 44.678 0.997635 -42.26 0.997635 -42.26 0.068722 50.798
6.21500000 0.068737 44.623 0.997634 -42.30 0.997634 -42.30 0.068737 50.781
6.22000000 0.068751 44.567 0.997634 -42.33 0.997634 -42.33 0.068751 50.765
6.22500000 0.068761 44.509 0.997633 -42.37 0.997633 -42.37 0.068761 50.750
6.23000000 0.068769 44.450 0.997632 -42.41 0.997632 -42.41 0.068769 50.736
6.23500000 0.068774 44.389 0.997632 -42.44 0.997632 -42.44 0.068774 50.724
6.24000000 0.068775 44.325 0.997632 -42.48 0.997632 -42.48 0.068775 50.713
6.24500000 0.068773 44.259 0.997632 -42.52 0.997632 -42.52 0.068773 50.704
6.25000000 0.068766 44.191 0.997632 -42.56 0.997632 -42.56 0.068766 50.698
6.25500000 0.068754 44.119 0.997633 -42.59 0.997633 -42.59 0.068754 50.694
6.26000000 0.068737 44.044 0.997634 -42.63 0.997634 -42.63 0.068737 50.692
6.26500000 0.068712 43.964 0.997636 -42.67 0.997636 -42.67 0.068712 50.694
6.27000000 0.068681 43.880 0.997638 -42.71 0.997638 -42.71 0.068681 50.700
6.27500000 0.068640 43.790 0.997641 -42.75 0.997641 -42.75 0.068640 50.710
6.28000000 0.068588 43.693 0.997645 -42.79 0.997645 -42.79 0.068588 50.725
6.28500000 0.068524 43.588 0.997649 -42.83 0.997649 -42.83 0.068524 50.747
6.29000000 0.068445 43.474 0.997654 -42.88 0.997654 -42.88 0.068445 50.777
6.29500000 0.068346 43.347 0.997661 -42.92 0.997661 -42.92 0.068347 50.816
6.30000000 0.068225 43.205 0.997670 -42.96 0.997670 -42.96 0.068225 50.867
6.30500000 0.068074 43.043 0.997680 -43.01 0.997680 -43.01 0.068074 50.933
6.31000000 0.067885 42.856 0.997693 -43.06 0.997693 -43.06 0.067885 51.020
6.31500000 0.067646 42.636 0.997709 -43.12 0.997709 -43.12 0.067647 51.133
6.32000000 0.067340 42.369 0.997729 -43.17 0.997729 -43.17 0.067340 51.282
6.32500000 0.066938 42.037 0.997756 -43.24 0.997756 -43.24 0.066939 51.485
6.33000000 0.066397 41.604 0.997792 -43.32 0.997792 -43.32 0.066398 51.767
6.33500000 0.065639 41.013 0.997842 -43.41 0.997842 -43.41 0.065640 52.177
6.34000000 0.064518 40.142 0.997915 -43.52 0.997915 -43.52 0.064520 52.815
6.34500000 0.062718 38.709 0.998029 -43.69 0.998029 -43.69 0.062720 53.914
6.35000000 0.059412 35.866 0.998229 -43.97 0.998229 -43.97 0.059417 56.196
!< P1 F=6.35 Eeff=(5.67114791 -5.1681e-6) Z0=(57.298837 2.61131e-5) R=0.00764571 C=0.00300538 
!< P2 F=6.35 Eeff=(5.67108989 -5.1681e-6) Z0=(56.0080811 2.5523e-5) R=0.00772458 C=0.00297403 
6.35020000 0.059223 35.692 0.998241 -43.99 0.998241 -43.99 0.059228 56.339
6.35040000 0.059027 35.511 0.998252 -44.00 0.998252 -44.00 0.059032 56.487
6.35060000 0.058824 35.322 0.998264 -44.02 0.998264 -44.02 0.058829 56.643
6.35080000 0.058614 35.125 0.998276 -44.04 0.998276 -44.04 0.058620 56.805
6.35100000 0.058397 34.920 0.998289 -44.06 0.998289 -44.06 0.058403 56.975
6.35120000 0.058172 34.704 0.998302 -44.07 0.998302 -44.07 0.058178 57.153
6.35140000 0.057939 34.479 0.998315 -44.09 0.998315 -44.09 0.057945 57.340
6.35160000 0.057697 34.243 0.998329 -44.11 0.998329 -44.11 0.057704 57.536
6.35180000 0.057447 33.996 0.998343 -44.14 0.998343 -44.14 0.057453 57.742
6.35200000 0.057186 33.736 0.998358 -44.16 0.998358 -44.16 0.057193 57.958
6.35220000 0.056916 33.463 0.998373 -44.18 0.998373 -44.18 0.056923 58.187
6.35240000 0.056635 33.176 0.998389 -44.20 0.998389 -44.20 0.056643 58.427
6.35260000 0.056342 32.873 0.998405 -44.23 0.998405 -44.23 0.056350 58.682
6.35280000 0.056038 32.553 0.998422 -44.25 0.998422 -44.25 0.056046 58.951
6.35300000 0.055721 32.215 0.998439 -44.28 0.998439 -44.28 0.055730 59.237
6.35320000 0.055390 31.857 0.998457 -44.31 0.998457 -44.31 0.055400 59.539
6.35340000 0.055045 31.477 0.998476 -44.34 0.998476 -44.34 0.055056 59.861
6.35360000 0.054685 31.074 0.998495 -44.37 0.998495 -44.37 0.054696 60.204
6.35380000 0.054309 30.645 0.998516 -44.40 0.998516 -44.40 0.054321 60.570
6.35400000 0.053916 30.187 0.998536 -44.43 0.998536 -44.43 0.053929 60.961
6.35420000 0.053505 29.698 0.998558 -44.47 0.998558 -44.47 0.053518 61.380
6.35440000 0.053075 29.174 0.998581 -44.51 0.998581 -44.51 0.053088 61.831
6.35460000 0.052624 28.611 0.998604 -44.54 0.998604 -44.54 0.052638 62.315
6.35480000 0.052151 28.006 0.998628 -44.59 0.998628 -44.59 0.052166 62.838
6.35500000 0.051655 27.352 0.998653 -44.63 0.998653 -44.63 0.051671 63.405
6.35520000 0.051134 26.645 0.998679 -44.68 0.998679 -44.68 0.051152 64.019
6.35540000 0.050587 25.878 0.998706 -44.73 0.998706 -44.73 0.050606 64.689
6.35560000 0.050012 25.042 0.998734 -44.78 0.998734 -44.78 0.050033 65.420
6.35580000 0.049408 24.129 0.998763 -44.84 0.998763 -44.84 0.049431 66.222
6.35600000 0.048773 23.127 0.998793 -44.90 0.998793 -44.90 0.048798 67.105
6.35620000 0.048106 22.023 0.998825 -44.96 0.998825 -44.96 0.048133 68.080
6.35640000 0.047406 20.802 0.998857 -45.03 0.998857 -45.03 0.047435 69.164
6.35660000 0.046671 19.445 0.998890 -45.10 0.998890 -45.10 0.046703 70.372
6.35680000 0.045902 17.930 0.998924 -45.19 0.998924 -45.19 0.045937 71.727
6.35700000 0.045099 16.228 0.998958 -45.27 0.998958 -45.27 0.045139 73.254
6.35720000 0.044266 14.306 0.998993 -45.37 0.998993 -45.37 0.044309 74.986
6.35740000 0.043406 12.123 0.999029 -45.48 0.999029 -45.48 0.043455 76.960
6.35760000 0.042528 9.6281 0.999063 -45.59 0.999063 -45.59 0.042583 79.226
6.35780000 0.041646 6.7585 0.999097 -45.72 0.999097 -45.72 0.041708 81.841
6.35800000 0.040782 3.4389 0.999129 -45.86 0.999129 -45.86 0.040853 84.877
6.35820000 0.039971 -0.421 0.999157 -46.02 0.999157 -46.02 0.040052 88.419
6.35840000 0.039265 -4.927 0.999179 -46.20 0.999179 -46.20 0.039358 92.564
6.35860000 0.038744 -10.19 0.999193 -46.40 0.999193 -46.40 0.038852 97.416
6.35880000 0.038527 -16.32 0.999193 -46.63 0.999193 -46.63 0.038651 103.07
6.35900000 0.038784 -23.39 0.999173 -46.89 0.999173 -46.89 0.038927 109.59
6.35920000 0.039759 -31.40 0.999121 -47.20 0.999121 -47.20 0.039922 116.94
6.35940000 0.041775 -40.22 0.999023 -47.56 0.999023 -47.56 0.041960 124.99
6.35960000 0.045256 -49.58 0.998849 -48.00 0.998849 -48.00 0.045463 133.42
6.35980000 0.050743 -59.09 0.998556 -48.54 0.998556 -48.54 0.050971 141.80
6.36000000 0.058947 -68.37 0.998064 -49.20 0.998064 -49.20 0.059195 149.69
6.36020000 0.070881 -77.15 0.997227 -50.06 0.997227 -50.06 0.071150 156.69
6.36040000 0.088148 -85.34 0.995757 -51.20 0.995757 -51.20 0.088442 162.55
6.36060000 0.113573 -93.08 0.993026 -52.79 0.993026 -52.79 0.113900 167.04
6.36080000 0.152666 -100.7 0.987495 -55.15 0.987495 -55.15 0.153042 169.89
6.36100000 0.217308 -109.2 0.974731 -59.02 0.974731 -59.02 0.217765 170.44
!< P1 F=6.361 Eeff=(5.67114692 -5.1689e-6) Z0=(57.298829 2.61131e-5) R=0.0076307 C=0.00300538 
!< P2 F=6.361 Eeff=(5.67108887 -5.169e-6) Z0=(56.0080736 2.55275e-5) R=0.00771082 C=0.00297403 
6.36100500 0.219459 -109.4 0.974226 -59.14 0.974226 -59.14 0.219920 170.42
6.36101000 0.221645 -109.6 0.973709 -59.27 0.973709 -59.27 0.222108 170.39
6.36101500 0.223866 -109.9 0.973178 -59.41 0.973178 -59.41 0.224332 170.35
6.36102000 0.226121 -110.1 0.972633 -59.54 0.972633 -59.54 0.226590 170.32
6.36102500 0.228413 -110.4 0.972073 -59.68 0.972073 -59.68 0.228885 170.28
6.36103000 0.230742 -110.6 0.971498 -59.82 0.971498 -59.82 0.231217 170.24
6.36103500 0.233109 -110.8 0.970908 -59.96 0.970908 -59.96 0.233587 170.20
6.36104000 0.235515 -111.1 0.970301 -60.10 0.970301 -60.10 0.235996 170.15
6.36104500 0.237960 -111.3 0.969677 -60.25 0.969677 -60.25 0.238444 170.11
6.36105000 0.240446 -111.6 0.969037 -60.40 0.969037 -60.40 0.240933 170.06
6.36105500 0.242973 -111.8 0.968378 -60.55 0.968378 -60.55 0.243464 170.00
6.36106000 0.245543 -112.1 0.967701 -60.70 0.967701 -60.70 0.246037 169.94
6.36106500 0.248156 -112.4 0.967005 -60.86 0.967005 -60.86 0.248653 169.88
6.36107000 0.250814 -112.6 0.966289 -61.02 0.966289 -61.02 0.251314 169.82
6.36107500 0.253517 -112.9 0.965552 -61.18 0.965552 -61.18 0.254021 169.75
6.36108000 0.256267 -113.1 0.964794 -61.35 0.964794 -61.35 0.256774 169.68
6.36108500 0.259064 -113.4 0.964014 -61.52 0.964014 -61.52 0.259575 169.61
6.36109000 0.261911 -113.7 0.963211 -61.69 0.963211 -61.69 0.262425 169.53
6.36109500 0.264807 -114.0 0.962384 -61.86 0.962384 -61.86 0.265325 169.45
6.36110000 0.267754 -114.2 0.961533 -62.04 0.961533 -62.04 0.268276 169.37
6.36110500 0.270755 -114.5 0.960656 -62.22 0.960656 -62.22 0.271280 169.28
6.36111000 0.273808 -114.8 0.959753 -62.40 0.959753 -62.40 0.274338 169.19
6.36111500 0.276918 -115.1 0.958822 -62.59 0.958822 -62.59 0.277451 169.09
6.36112000 0.280083 -115.4 0.957863 -62.78 0.957863 -62.78 0.280621 168.99
6.36112500 0.283307 -115.7 0.956873 -62.97 0.956873 -62.97 0.283848 168.89
6.36113000 0.286590 -116.0 0.955854 -63.17 0.955854 -63.17 0.287135 168.78
6.36113500 0.289933 -116.3 0.954802 -63.37 0.954802 -63.37 0.290483 168.67
6.36114000 0.293339 -116.6 0.953716 -63.58 0.953716 -63.58 0.293894 168.55
6.36114500 0.296810 -116.9 0.952596 -63.79 0.952596 -63.79 0.297369 168.43
6.36115000 0.300346 -117.2 0.951441 -64.00 0.951441 -64.00 0.300909 168.31
6.36115500 0.303949 -117.5 0.950247 -64.22 0.950247 -64.22 0.304517 168.18
6.36116000 0.307621 -117.8 0.949015 -64.45 0.949015 -64.45 0.308194 168.04
6.36116500 0.311364 -118.1 0.947742 -64.67 0.947742 -64.67 0.311942 167.90
6.36117000 0.315180 -118.5 0.946427 -64.91 0.946427 -64.91 0.315762 167.76
6.36117500 0.319071 -118.8 0.945068 -65.14 0.945068 -65.14 0.319658 167.61
6.36118000 0.323038 -119.1 0.943663 -65.39 0.943663 -65.39 0.323630 167.45
6.36118500 0.327083 -119.5 0.942210 -65.63 0.942210 -65.63 0.327681 167.29
6.36119000 0.331210 -119.8 0.940708 -65.88 0.940708 -65.88 0.331812 167.12
6.36119500 0.335419 -120.2 0.939153 -66.14 0.939153 -66.14 0.336027 166.95
6.36120000 0.339713 -120.5 0.937544 -66.41 0.937544 -66.41 0.340326 166.77
6.36120500 0.344095 -120.9 0.935879 -66.67 0.935879 -66.67 0.344713 166.58
6.36121000 0.348566 -121.3 0.934155 -66.95 0.934155 -66.95 0.349190 166.39
6.36121500 0.353129 -121.6 0.932369 -67.23 0.932369 -67.23 0.353759 166.19
6.36122000 0.357786 -122.0 0.930519 -67.52 0.930519 -67.52 0.358422 165.99
6.36122500 0.362540 -122.4 0.928602 -67.81 0.928602 -67.81 0.363182 165.77
6.36123000 0.367394 -122.8 0.926614 -68.11 0.926614 -68.11 0.368042 165.56
6.36123500 0.372351 -123.2 0.924553 -68.42 0.924553 -68.42 0.373005 165.33
6.36124000 0.377412 -123.6 0.922416 -68.73 0.922416 -68.73 0.378072 165.09
6.36124500 0.382581 -124.0 0.920198 -69.06 0.920198 -69.06 0.383248 164.85
6.36125000 0.387861 -124.5 0.917895 -69.39 0.917895 -69.39 0.388534 164.60
6.36125500 0.393254 -124.9 0.915505 -69.72 0.915505 -69.72 0.393934 164.34
6.36126000 0.398764 -125.3 0.913023 -70.07 0.913023 -70.07 0.399451 164.07
6.36126500 0.404393 -125.8 0.910444 -70.42 0.910444 -70.42 0.405087 163.80
6.36127000 0.410145 -126.2 0.907764 -70.79 0.907764 -70.79 0.410847 163.51
6.36127500 0.416024 -126.7 0.904979 -71.16 0.904979 -71.16 0.416733 163.22
6.36128000 0.422032 -127.2 0.902082 -71.54 0.902082 -71.54 0.422748 162.91
6.36128500 0.428172 -127.6 0.899069 -71.93 0.899069 -71.93 0.428896 162.60
6.36129000 0.434448 -128.1 0.895933 -72.33 0.895933 -72.33 0.435180 162.27
6.36129500 0.440864 -128.6 0.892670 -72.74 0.892670 -72.74 0.441604 161.93
6.36130000 0.447423 -129.2 0.889272 -73.16 0.889272 -73.16 0.448171 161.59
6.36130500 0.454128 -129.7 0.885733 -73.60 0.885733 -73.60 0.454885 161.23
6.36131000 0.460983 -130.2 0.882045 -74.04 0.882045 -74.04 0.461748 160.85
6.36131500 0.467992 -130.8 0.878202 -74.49 0.878202 -74.49 0.468766 160.47
6.36132000 0.475158 -131.3 0.874196 -74.96 0.874196 -74.96 0.475940 160.07
6.36132500 0.482484 -131.9 0.870018 -75.44 0.870018 -75.44 0.483276 159.66
6.36133000 0.489974 -132.5 0.865659 -75.93 0.865659 -75.93 0.490775 159.24
6.36133500 0.497632 -133.1 0.861110 -76.44 0.861110 -76.44 0.498442 158.80
6.36134000 0.505461 -133.7 0.856362 -76.96 0.856362 -76.96 0.506281 158.35
6.36134500 0.513463 -134.3 0.851404 -77.50 0.851404 -77.50 0.514293 157.88
6.36135000 0.521643 -135.0 0.846226 -78.05 0.846226 -78.05 0.522483 157.40
6.36135500 0.530004 -135.6 0.840816 -78.61 0.840816 -78.61 0.530854 156.90
6.36136000 0.538547 -136.3 0.835162 -79.19 0.835162 -79.19 0.539408 156.38
6.36136500 0.547276 -137.0 0.829251 -79.79 0.829251 -79.79 0.548148 155.85
6.36137000 0.556194 -137.7 0.823071 -80.40 0.823071 -80.40 0.557076 155.30
6.36137500 0.565301 -138.4 0.816607 -81.04 0.816607 -81.04 0.566194 154.73
6.36138000 0.574600 -139.2 0.809845 -81.69 0.809845 -81.69 0.575504 154.14
6.36138500 0.584091 -139.9 0.802770 -82.36 0.802770 -82.36 0.585007 153.53
6.36139000 0.593776 -140.7 0.795366 -83.04 0.795366 -83.04 0.594704 152.90
6.36139500 0.603655 -141.5 0.787615 -83.75 0.787615 -83.75 0.604595 152.25
6.36140000 0.613727 -142.3 0.779501 -84.48 0.779501 -84.48 0.614679 151.57
6.36140500 0.623991 -143.2 0.771005 -85.23 0.771005 -85.23 0.624954 150.88
6.36141000 0.634444 -144.1 0.762109 -86.01 0.762109 -86.01 0.635420 150.16
6.36141500 0.645083 -145.0 0.752793 -86.80 0.752793 -86.80 0.646072 149.42
6.36142000 0.655905 -145.9 0.743036 -87.62 0.743036 -87.62 0.656907 148.65
6.36142500 0.666904 -146.8 0.732819 -88.46 0.732819 -88.46 0.667919 147.85
6.36143000 0.678073 -147.8 0.722119 -89.33 0.722119 -89.33 0.679101 147.03
6.36143500 0.689405 -148.8 0.710915 -90.22 0.710915 -90.22 0.690446 146.19
6.36144000 0.700888 -149.8 0.699185 -91.14 0.699185 -91.14 0.701943 145.31
6.36144500 0.712513 -150.9 0.686906 -92.08 0.686906 -92.08 0.713582 144.41
6.36145000 0.724266 -151.9 0.674055 -93.05 0.674055 -93.05 0.725348 143.47
6.36145500 0.736132 -153.1 0.660611 -94.05 0.660611 -94.05 0.737227 142.51
6.36146000 0.748092 -154.2 0.646550 -95.07 0.646550 -95.07 0.749201 141.52
6.36146500 0.760128 -155.4 0.631851 -96.12 0.631851 -96.12 0.761251 140.49
6.36147000 0.772216 -156.6 0.616492 -97.20 0.616492 -97.20 0.773353 139.44
6.36147500 0.784333 -157.8 0.600454 -98.31 0.600454 -98.31 0.785483 138.35
6.36148000 0.796451 -159.1 0.583718 -99.44 0.583718 -99.44 0.797615 137.23
6.36148500 0.808539 -160.4 0.566266 -100.6 0.566266 -100.6 0.809716 136.08
6.36149000 0.820566 -161.7 0.548083 -101.8 0.548083 -101.8 0.821755 134.89
6.36149500 0.831419 -162.9 0.530919 -102.9 0.530919 -102.9 0.832619 133.79
!< P1 F=6.361495 Eeff=(5.67114698 -5.1687e-6) Z0=(57.2988287 2.61131e-5) R=0.00763024 C=0.00300538 
!< P2 F=6.361495 Eeff=(5.67108901 -5.1687e-6) Z0=(56.0080738 2.55275e-5) R=0.00771004 C=0.00297403 
6.36149600 0.833772 -163.2 0.527089 -103.1 0.527089 -103.1 0.834976 133.55
6.36149700 0.836121 -163.5 0.523230 -103.4 0.523230 -103.4 0.837326 133.30
6.36149800 0.838463 -163.7 0.519340 -103.6 0.519340 -103.6 0.839671 133.05
6.36149900 0.840799 -164.0 0.515421 -103.9 0.515421 -103.9 0.842010 132.80
6.36150000 0.843129 -164.3 0.511472 -104.1 0.511472 -104.1 0.844342 132.55
6.36150100 0.845452 -164.6 0.507493 -104.4 0.507493 -104.4 0.846668 132.30
6.36150200 0.847768 -164.9 0.503484 -104.6 0.503484 -104.6 0.848986 132.05
6.36150300 0.850076 -165.1 0.499445 -104.9 0.499445 -104.9 0.851297 131.80
6.36150400 0.852377 -165.4 0.495376 -105.1 0.495376 -105.1 0.853600 131.54
6.36150500 0.854670 -165.7 0.491278 -105.4 0.491278 -105.4 0.855895 131.28
6.36150600 0.856954 -166.0 0.487149 -105.6 0.487149 -105.6 0.858181 131.03
6.36150700 0.859229 -166.3 0.482990 -105.9 0.482990 -105.9 0.860459 130.77
6.36150800 0.861495 -166.6 0.478801 -106.1 0.478801 -106.1 0.862727 130.51
6.36150900 0.863751 -166.9 0.474583 -106.4 0.474583 -106.4 0.864986 130.25
6.36151000 0.865998 -167.2 0.470334 -106.6 0.470334 -106.6 0.867235 129.98
6.36151100 0.868234 -167.4 0.466055 -106.9 0.466055 -106.9 0.869473 129.72
6.36151200 0.870460 -167.7 0.461747 -107.1 0.461747 -107.1 0.871701 129.45
6.36151300 0.872674 -168.0 0.457409 -107.4 0.457409 -107.4 0.873918 129.19
6.36151400 0.874878 -168.3 0.453040 -107.7 0.453040 -107.7 0.876124 128.92
6.36151500 0.877069 -168.6 0.448643 -107.9 0.448643 -107.9 0.878318 128.65
6.36151600 0.879249 -168.9 0.444215 -108.2 0.444215 -108.2 0.880500 128.38
6.36151700 0.881416 -169.2 0.439758 -108.4 0.439758 -108.4 0.882669 128.11
6.36151800 0.883570 -169.5 0.435271 -108.7 0.435271 -108.7 0.884825 127.84
6.36151900 0.885711 -169.8 0.430755 -109.0 0.430755 -109.0 0.886968 127.56
6.36152000 0.887839 -170.1 0.426209 -109.2 0.426209 -109.2 0.889098 127.29
6.36152100 0.889952 -170.4 0.421634 -109.5 0.421634 -109.5 0.891213 127.01
6.36152200 0.892051 -170.7 0.417030 -109.8 0.417030 -109.8 0.893314 126.74
6.36152300 0.894135 -171.0 0.412397 -110.0 0.412397 -110.0 0.895401 126.46
6.36152400 0.896204 -171.4 0.407735 -110.3 0.407735 -110.3 0.897472 126.18
6.36152500 0.898258 -171.7 0.403045 -110.5 0.403045 -110.5 0.899527 125.90
6.36152600 0.900296 -172.0 0.398325 -110.8 0.398325 -110.8 0.901567 125.62
6.36152700 0.902317 -172.3 0.393578 -111.1 0.393578 -111.1 0.903590 125.33
6.36152800 0.904321 -172.6 0.388801 -111.3 0.388801 -111.3 0.905597 125.05
6.36152900 0.906309 -172.9 0.383997 -111.6 0.383997 -111.6 0.907586 124.76
6.36153000 0.908279 -173.2 0.379165 -111.9 0.379165 -111.9 0.909558 124.48
6.36153100 0.910231 -173.5 0.374306 -112.1 0.374306 -112.1 0.911512 124.19
6.36153200 0.912165 -173.8 0.369418 -112.4 0.369418 -112.4 0.913447 123.90
6.36153300 0.914080 -174.2 0.364504 -112.7 0.364504 -112.7 0.915364 123.61
6.36153400 0.915976 -174.5 0.359562 -112.9 0.359562 -112.9 0.917262 123.32
6.36153500 0.917852 -174.8 0.354594 -113.2 0.354594 -113.2 0.919140 123.03
6.36153600 0.919709 -175.1 0.349599 -113.5 0.349599 -113.5 0.920998 122.74
6.36153700 0.921545 -175.4 0.344577 -113.7 0.344577 -113.7 0.922836 122.44
6.36153800 0.923361 -175.8 0.339530 -114.0 0.339530 -114.0 0.924653 122.15
6.36153900 0.925155 -176.1 0.334456 -114.2 0.334456 -114.2 0.926450 121.85
6.36154000 0.926929 -176.4 0.329358 -114.5 0.329358 -114.5 0.928225 121.56
6.36154100 0.928680 -176.7 0.324234 -114.8 0.324234 -114.8 0.929978 121.26
6.36154200 0.930410 -177.1 0.319085 -115.0 0.319085 -115.0 0.931708 120.96
6.36154300 0.932116 -177.4 0.313911 -115.3 0.313911 -115.3 0.933416 120.66
6.36154400 0.933800 -177.7 0.308713 -115.6 0.308713 -115.6 0.935102 120.36
6.36154500 0.935461 -178.0 0.303492 -115.8 0.303492 -115.8 0.936764 120.06
6.36154600 0.937097 -178.4 0.298246 -116.1 0.298246 -116.1 0.938402 119.76
6.36154700 0.938710 -178.7 0.292978 -116.3 0.292978 -116.3 0.940016 119.45
6.36154800 0.940298 -179.0 0.287687 -116.6 0.287687 -116.6 0.941605 119.15
6.36154900 0.941862 -179.4 0.282373 -116.8 0.282373 -116.8 0.943170 118.84
6.36155000 0.943400 -179.7 0.277037 -117.1 0.277037 -117.1 0.944710 118.54
6.36155100 0.944913 179.96 0.271680 -117.3 0.271680 -117.3 0.946224 118.23
6.36155200 0.946401 179.63 0.266301 -117.6 0.266301 -117.6 0.947712 117.92
6.36155300 0.947862 179.29 0.260902 -117.8 0.260902 -117.8 0.949174 117.62
6.36155400 0.949296 178.96 0.255482 -118.1 0.255482 -118.1 0.950610 117.31
6.36155500 0.950704 178.62 0.250042 -118.3 0.250042 -118.3 0.952018 117.00
6.36155600 0.952084 178.28 0.244583 -118.5 0.244583 -118.5 0.953400 116.69
6.36155700 0.953437 177.94 0.239105 -118.8 0.239105 -118.8 0.954754 116.38
6.36155800 0.954762 177.60 0.233608 -119.0 0.233608 -119.0 0.956080 116.07
6.36155900 0.956059 177.27 0.228093 -119.2 0.228093 -119.2 0.957378 115.75
6.36156000 0.957328 176.93 0.222561 -119.4 0.222561 -119.4 0.958647 115.44
6.36156100 0.958568 176.58 0.217012 -119.6 0.217012 -119.6 0.959888 115.13
6.36156200 0.959779 176.24 0.211447 -119.8 0.211447 -119.8 0.961099 114.81
6.36156300 0.960960 175.90 0.205865 -120.0 0.205865 -120.0 0.962282 114.50
6.36156400 0.962112 175.56 0.200269 -120.2 0.200269 -120.2 0.963434 114.18
6.36156500 0.963235 175.22 0.194658 -120.4 0.194658 -120.4 0.964557 113.87
6.36156600 0.964327 174.87 0.189033 -120.6 0.189033 -120.6 0.965650 113.55
6.36156700 0.965389 174.53 0.183394 -120.8 0.183394 -120.8 0.966712 113.23
6.36156800 0.966420 174.18 0.177743 -120.9 0.177743 -120.9 0.967744 112.91
6.36156900 0.967420 173.84 0.172079 -121.1 0.172079 -121.1 0.968745 112.60
6.36157000 0.968389 173.49 0.166405 -121.2 0.166405 -121.2 0.969714 112.28
6.36157100 0.969327 173.15 0.160719 -121.3 0.160719 -121.3 0.970653 111.96
6.36157200 0.970234 172.80 0.155024 -121.4 0.155024 -121.4 0.971560 111.64
6.36157300 0.971109 172.46 0.149320 -121.5 0.149320 -121.5 0.972435 111.32
6.36157400 0.971952 172.11 0.143608 -121.6 0.143608 -121.6 0.973278 111.00
6.36157500 0.972763 171.76 0.137889 -121.6 0.137889 -121.6 0.974089 110.68
6.36157600 0.973541 171.41 0.132163 -121.7 0.132163 -121.7 0.974868 110.36
6.36157700 0.974288 171.07 0.126432 -121.6 0.126432 -121.6 0.975614 110.04
6.36157800 0.975001 170.72 0.120698 -121.6 0.120698 -121.6 0.976328 109.72
6.36157900 0.975682 170.37 0.114961 -121.5 0.114961 -121.5 0.977008 109.40
6.36158000 0.976330 170.02 0.109222 -121.4 0.109222 -121.4 0.977656 109.07
6.36158100 0.976945 169.67 0.103485 -121.2 0.103485 -121.2 0.978271 108.75
6.36158200 0.977527 169.33 0.097749 -121.0 0.097749 -121.0 0.978853 108.43
6.36158300 0.978076 168.98 0.092019 -120.7 0.092019 -120.7 0.979402 108.11
6.36158400 0.978592 168.63 0.086296 -120.3 0.086296 -120.3 0.979917 107.79
6.36158500 0.979074 168.28 0.080584 -119.8 0.080584 -119.8 0.980399 107.46
6.36158600 0.979522 167.93 0.074887 -119.2 0.074887 -119.2 0.980847 107.14
6.36158700 0.979937 167.58 0.069210 -118.5 0.069210 -118.5 0.981262 106.82
6.36158800 0.980319 167.23 0.063561 -117.5 0.063561 -117.5 0.981643 106.50
6.36158900 0.980667 166.88 0.057948 -116.3 0.057948 -116.3 0.981990 106.17
6.36159000 0.980981 166.53 0.052385 -114.7 0.052385 -114.7 0.982304 105.85
6.36159100 0.981261 166.18 0.046891 -112.7 0.046891 -112.7 0.982584 105.53
6.36159200 0.981508 165.83 0.041495 -110.1 0.041495 -110.1 0.982830 105.20
6.36159300 0.981721 165.49 0.036239 -106.7 0.036239 -106.7 0.983042 104.88
6.36159400 0.981901 165.14 0.031197 -101.9 0.031197 -101.9 0.983221 104.56
6.36159500 0.982046 164.79 0.026491 -95.35 0.026491 -95.35 0.983366 104.24
6.36159600 0.982158 164.44 0.022333 -85.99 0.022333 -85.99 0.983477 103.91
6.36159700 0.982237 164.09 0.019082 -72.81 0.019082 -72.81 0.983555 103.59
6.36159800 0.982281 163.74 0.017259 -55.55 0.017259 -55.55 0.983599 103.27
!< P1 F=6.361598 Eeff=(5.67114749 -5.1686e-6) Z0=(57.2988276 2.61131e-5) R=0.00763102 C=0.00300538 
!< P2 F=6.361598 Eeff=(5.67108932 -5.1686e-6) Z0=(56.0080714 2.55275e-5) R=0.00770871 C=0.00297402 
6.36159900 0.982293 163.39 0.017328 -36.21 0.017328 -36.21 0.983609 102.95
6.36160000 0.982269 163.04 0.019298 -19.04 0.019298 -19.04 0.983585 102.62
6.36160100 0.982212 162.69 0.022675 -6.096 0.022675 -6.096 0.983526 102.29
6.36160200 0.982121 162.34 0.026931 3.0342 0.026931 3.0342 0.983434 101.97
6.36160300 0.981995 161.98 0.031711 9.4453 0.031711 9.4453 0.983307 101.65
6.36160400 0.981836 161.63 0.036807 14.036 0.036807 14.036 0.983147 101.32
6.36160500 0.981642 161.28 0.042101 17.404 0.042101 17.404 0.982952 101.00
6.36160600 0.981416 160.93 0.047524 19.933 0.047524 19.933 0.982724 100.67
6.36160700 0.981155 160.58 0.053033 21.869 0.053033 21.869 0.982463 100.35
6.36160800 0.980862 160.24 0.058601 23.373 0.058601 23.373 0.982168 100.03
6.36160900 0.980535 159.89 0.064209 24.556 0.064209 24.556 0.981839 99.706
6.36161000 0.980175 159.54 0.069845 25.492 0.069845 25.492 0.981478 99.385
6.36161100 0.979782 159.19 0.075499 26.237 0.075499 26.237 0.981084 99.063
6.36161200 0.979357 158.84 0.081165 26.831 0.081165 26.831 0.980657 98.743
6.36161300 0.978899 158.50 0.086837 27.303 0.086837 27.303 0.980198 98.423
6.36161400 0.978409 158.15 0.092512 27.675 0.092512 27.675 0.979706 98.103
6.36161500 0.977887 157.81 0.098186 27.966 0.098186 27.966 0.979183 97.784
6.36161600 0.977334 157.46 0.103857 28.188 0.103857 28.188 0.978627 97.465
6.36161700 0.976748 157.12 0.109523 28.352 0.109523 28.352 0.978040 97.148
6.36161800 0.976132 156.77 0.115181 28.468 0.115181 28.468 0.977422 96.830
6.36161900 0.975484 156.43 0.120830 28.541 0.120830 28.541 0.976772 96.514
6.36162000 0.974805 156.09 0.126469 28.579 0.126469 28.579 0.976092 96.198
6.36162100 0.974096 155.75 0.132096 28.585 0.132096 28.585 0.975381 95.883
6.36162200 0.973357 155.41 0.137711 28.564 0.137711 28.564 0.974640 95.568
6.36162300 0.972588 155.07 0.143312 28.519 0.143312 28.519 0.973869 95.255
6.36162400 0.971789 154.73 0.148899 28.453 0.148899 28.453 0.973068 94.942
6.36162500 0.970960 154.39 0.154471 28.369 0.154471 28.369 0.972237 94.629
6.36162600 0.970103 154.05 0.160026 28.268 0.160026 28.268 0.971378 94.318
6.36162700 0.969217 153.72 0.165565 28.152 0.165565 28.152 0.970490 94.007
6.36162800 0.968302 153.38 0.171086 28.023 0.171086 28.023 0.969573 93.697
6.36162900 0.967359 153.04 0.176589 27.883 0.176589 27.883 0.968628 93.389
6.36163000 0.966388 152.71 0.182073 27.732 0.182073 27.732 0.967655 93.080
6.36163100 0.965390 152.38 0.187538 27.571 0.187538 27.571 0.966654 92.773
6.36163200 0.964365 152.04 0.192984 27.402 0.192984 27.402 0.965627 92.467
6.36163300 0.963312 151.71 0.198409 27.225 0.198409 27.225 0.964572 92.161
6.36163400 0.962233 151.38 0.203813 27.041 0.203813 27.041 0.963491 91.857
6.36163500 0.961128 151.05 0.209195 26.851 0.209195 26.851 0.962384 91.553
6.36163600 0.959998 150.72 0.214557 26.655 0.214557 26.655 0.961251 91.251
6.36163700 0.958842 150.40 0.219895 26.454 0.219895 26.454 0.960092 90.949
6.36163800 0.957660 150.07 0.225212 26.248 0.225212 26.248 0.958908 90.648
6.36163900 0.956454 149.75 0.230505 26.038 0.230505 26.038 0.957700 90.349
6.36164000 0.955224 149.42 0.235775 25.824 0.235775 25.824 0.956467 90.050
6.36164100 0.953970 149.10 0.241021 25.606 0.241021 25.606 0.955210 89.752
6.36164200 0.952692 148.77 0.246244 25.386 0.246244 25.386 0.953930 89.456
6.36164300 0.951390 148.45 0.251441 25.162 0.251441 25.162 0.952626 89.160
6.36164400 0.950066 148.13 0.256614 24.936 0.256614 24.936 0.951299 88.866
6.36164500 0.948720 147.81 0.261762 24.707 0.261762 24.707 0.949950 88.572
6.36164600 0.947351 147.50 0.266885 24.476 0.266885 24.476 0.948578 88.280
6.36164700 0.945961 147.18 0.271982 24.243 0.271982 24.243 0.947185 87.989
6.36164800 0.944549 146.86 0.277053 24.009 0.277053 24.009 0.945771 87.698
6.36164900 0.943116 146.55 0.282098 23.773 0.282098 23.773 0.944335 87.409
6.36165000 0.941663 146.23 0.287116 23.535 0.287116 23.535 0.942879 87.122
6.36165100 0.940189 145.92 0.292108 23.296 0.292108 23.296 0.941403 86.835
6.36165200 0.938696 145.61 0.297073 23.057 0.297073 23.057 0.939907 86.549
6.36165300 0.937183 145.30 0.302011 22.816 0.302011 22.816 0.938391 86.265
6.36165400 0.935651 144.99 0.306921 22.574 0.306921 22.574 0.936856 85.981
6.36165500 0.934100 144.68 0.311804 22.331 0.311804 22.331 0.935303 85.699
6.36165600 0.932532 144.38 0.316659 22.088 0.316659 22.088 0.933731 85.418
6.36165700 0.930945 144.07 0.321487 21.845 0.321487 21.845 0.932142 85.139
6.36165800 0.929341 143.77 0.326286 21.601 0.326286 21.601 0.930535 84.860
6.36165900 0.927719 143.47 0.331057 21.356 0.331057 21.356 0.928910 84.583
6.36166000 0.926081 143.16 0.335800 21.112 0.335800 21.112 0.927269 84.307
6.36166100 0.924427 142.86 0.340514 20.867 0.340514 20.867 0.925612 84.032
6.36166200 0.922756 142.56 0.345200 20.622 0.345200 20.622 0.923938 83.758
6.36166300 0.921070 142.27 0.349857 20.377 0.349857 20.377 0.922249 83.486
6.36166400 0.919369 141.97 0.354485 20.132 0.354485 20.132 0.920545 83.214
6.36166500 0.917653 141.67 0.359084 19.887 0.359084 19.887 0.918826 82.944
6.36166600 0.915922 141.38 0.363654 19.642 0.363654 19.642 0.917092 82.676
6.36166700 0.914177 141.09 0.368195 19.398 0.368195 19.398 0.915344 82.408
6.36166800 0.912418 140.80 0.372707 19.154 0.372707 19.154 0.913582 82.142
6.36166900 0.910646 140.51 0.377190 18.910 0.377190 18.910 0.911807 81.877
6.36167000 0.908861 140.22 0.381643 18.666 0.381643 18.666 0.910019 81.613
6.36167100 0.907064 139.93 0.386067 18.423 0.386067 18.423 0.908218 81.351
6.36167200 0.905254 139.64 0.390462 18.180 0.390462 18.180 0.906405 81.090
6.36167300 0.903432 139.36 0.394827 17.938 0.394827 17.938 0.904580 80.830
6.36167400 0.901598 139.07 0.399162 17.696 0.399162 17.696 0.902744 80.572
6.36167500 0.899754 138.79 0.403469 17.454 0.403469 17.454 0.900896 80.314
6.36167600 0.897898 138.51 0.407745 17.214 0.407745 17.214 0.899037 80.058
6.36167700 0.896032 138.23 0.411992 16.973 0.411992 16.973 0.897168 79.804
6.36167800 0.894155 137.95 0.416210 16.734 0.416210 16.734 0.895288 79.550
6.36167900 0.892269 137.67 0.420398 16.495 0.420398 16.495 0.893398 79.298
6.36168000 0.890373 137.40 0.424557 16.257 0.424557 16.257 0.891499 79.047
6.36168100 0.888468 137.12 0.428686 16.019 0.428686 16.019 0.889591 78.798
6.36168200 0.886554 136.85 0.432786 15.782 0.432786 15.782 0.887674 78.550
6.36168300 0.884632 136.58 0.436856 15.546 0.436856 15.546 0.885748 78.303
6.36168400 0.882701 136.31 0.440897 15.311 0.440897 15.311 0.883814 78.057