! Sonnet Data File
! From: em Version : 14.52
! From Project: w3
! Data is De-embedded 
! Data File Written: 07/15/2018 11:35:19
!< HDATE 07/13/2018 23:52:36
!< MDATE 07/15/2018 10:07:41
# GHZ S MA R 50.00000
6.15000000 0.060060 47.598 0.998194 -41.73 0.998194 -41.73 0.060060 48.941
!< P1 F=6.15 Eeff=(5.67104614 -5.1685e-6) Z0=(55.9243575 2.54874e-5) R=0.00799243 C=0.00296644 
!< P2 F=6.15 Eeff=(5.67104106 -5.1685e-6) Z0=(55.8945573 2.5474e-5) R=0.00799718 C=0.00296387 
6.15500000 0.060091 47.557 0.998192 -41.77 0.998192 -41.77 0.060090 48.912
6.16000000 0.060121 47.517 0.998190 -41.80 0.998190 -41.80 0.060120 48.884
6.16500000 0.060151 47.475 0.998189 -41.83 0.998189 -41.83 0.060150 48.855
6.17000000 0.060180 47.434 0.998187 -41.87 0.998187 -41.87 0.060179 48.827
6.17500000 0.060209 47.392 0.998185 -41.90 0.998185 -41.90 0.060208 48.800
6.18000000 0.060237 47.350 0.998183 -41.94 0.998183 -41.94 0.060236 48.772
6.18500000 0.060265 47.308 0.998181 -41.97 0.998181 -41.97 0.060264 48.745
6.19000000 0.060292 47.265 0.998180 -42.01 0.998180 -42.01 0.060291 48.718
6.19500000 0.060319 47.222 0.998178 -42.04 0.998178 -42.04 0.060317 48.691
6.20000000 0.060345 47.179 0.998176 -42.08 0.998176 -42.08 0.060343 48.665
6.20500000 0.060370 47.135 0.998175 -42.11 0.998175 -42.11 0.060368 48.639
6.21000000 0.060395 47.090 0.998173 -42.15 0.998173 -42.15 0.060392 48.614
6.21500000 0.060418 47.045 0.998172 -42.18 0.998172 -42.18 0.060416 48.589
6.22000000 0.060441 46.999 0.998170 -42.22 0.998170 -42.22 0.060439 48.565
6.22500000 0.060463 46.953 0.998169 -42.25 0.998169 -42.25 0.060460 48.541
6.23000000 0.060484 46.906 0.998168 -42.29 0.998168 -42.29 0.060481 48.517
6.23500000 0.060503 46.859 0.998166 -42.32 0.998166 -42.32 0.060501 48.494
6.24000000 0.060522 46.810 0.998165 -42.36 0.998165 -42.36 0.060519 48.472
6.24500000 0.060539 46.761 0.998164 -42.39 0.998164 -42.39 0.060536 48.450
6.25000000 0.060555 46.711 0.998163 -42.43 0.998163 -42.43 0.060552 48.430
6.25500000 0.060569 46.659 0.998162 -42.47 0.998162 -42.47 0.060567 48.410
6.26000000 0.060581 46.607 0.998162 -42.50 0.998162 -42.50 0.060579 48.391
6.26500000 0.060592 46.553 0.998161 -42.54 0.998161 -42.54 0.060590 48.373
6.27000000 0.060601 46.498 0.998161 -42.57 0.998161 -42.57 0.060599 48.356
6.27500000 0.060607 46.441 0.998160 -42.61 0.998160 -42.61 0.060605 48.340
6.28000000 0.060611 46.383 0.998160 -42.65 0.998160 -42.65 0.060609 48.326
6.28500000 0.060612 46.322 0.998160 -42.68 0.998160 -42.68 0.060610 48.313
6.29000000 0.060610 46.260 0.998160 -42.72 0.998160 -42.72 0.060608 48.302
6.29500000 0.060605 46.195 0.998161 -42.76 0.998161 -42.76 0.060603 48.293
6.30000000 0.060595 46.127 0.998161 -42.79 0.998161 -42.79 0.060593 48.287
6.30500000 0.060581 46.056 0.998162 -42.83 0.998162 -42.83 0.060579 48.282
6.31000000 0.060562 45.982 0.998163 -42.87 0.998163 -42.87 0.060560 48.281
6.31500000 0.060537 45.903 0.998165 -42.91 0.998165 -42.91 0.060535 48.283
6.32000000 0.060505 45.820 0.998167 -42.95 0.998167 -42.95 0.060504 48.289
6.32500000 0.060465 45.731 0.998169 -42.99 0.998169 -42.99 0.060464 48.299
6.33000000 0.060416 45.635 0.998172 -43.03 0.998172 -43.03 0.060415 48.315
6.33500000 0.060356 45.531 0.998176 -43.07 0.998176 -43.07 0.060355 48.338
6.34000000 0.060282 45.417 0.998180 -43.11 0.998180 -43.11 0.060281 48.368
6.34500000 0.060192 45.292 0.998186 -43.15 0.998186 -43.15 0.060191 48.407
6.35000000 0.060082 45.152 0.998193 -43.19 0.998193 -43.19 0.060082 48.459
6.35500000 0.059948 44.994 0.998201 -43.24 0.998201 -43.24 0.059947 48.525
6.36000000 0.059782 44.812 0.998211 -43.29 0.998211 -43.29 0.059781 48.611
6.36500000 0.059574 44.599 0.998223 -43.34 0.998223 -43.34 0.059574 48.722
6.37000000 0.059312 44.344 0.998239 -43.39 0.998239 -43.39 0.059312 48.868
6.37500000 0.058975 44.030 0.998259 -43.45 0.998259 -43.45 0.058975 49.061
6.38000000 0.058530 43.630 0.998285 -43.52 0.998285 -43.52 0.058530 49.326
6.38500000 0.057925 43.097 0.998320 -43.60 0.998320 -43.60 0.057925 49.699
6.39000000 0.057063 42.345 0.998369 -43.70 0.998369 -43.70 0.057064 50.257
6.39500000 0.055755 41.185 0.998443 -43.83 0.998443 -43.83 0.055756 51.156
6.40000000 0.053562 39.133 0.998562 -44.03 0.998562 -44.03 0.053565 52.815
!< P1 F=6.4 Eeff=(5.67102986 -5.169e-6) Z0=(55.9241714 2.54874e-5) R=0.00768039 C=0.00296642 
!< P2 F=6.4 Eeff=(5.67102426 -5.169e-6) Z0=(55.8943688 2.5474e-5) R=0.00768742 C=0.00296385 
6.40020000 0.053444 39.018 0.998568 -44.04 0.998568 -44.04 0.053447 52.910
6.40040000 0.053322 38.898 0.998575 -44.05 0.998575 -44.05 0.053325 53.008
6.40060000 0.053197 38.775 0.998581 -44.06 0.998581 -44.06 0.053201 53.110
6.40080000 0.053069 38.648 0.998588 -44.07 0.998588 -44.07 0.053072 53.216
6.40100000 0.052937 38.516 0.998595 -44.08 0.998595 -44.08 0.052941 53.325
6.40120000 0.052802 38.380 0.998602 -44.09 0.998602 -44.09 0.052805 53.438
6.40140000 0.052662 38.239 0.998609 -44.11 0.998609 -44.11 0.052666 53.555
6.40160000 0.052518 38.093 0.998617 -44.12 0.998617 -44.12 0.052522 53.677
6.40180000 0.052371 37.942 0.998624 -44.13 0.998624 -44.13 0.052374 53.803
6.40200000 0.052218 37.785 0.998632 -44.14 0.998632 -44.14 0.052222 53.934
6.40220000 0.052061 37.622 0.998640 -44.16 0.998640 -44.16 0.052065 54.070
6.40240000 0.051899 37.453 0.998649 -44.17 0.998649 -44.17 0.051904 54.212
6.40260000 0.051733 37.277 0.998657 -44.18 0.998657 -44.18 0.051737 54.360
6.40280000 0.051560 37.094 0.998666 -44.20 0.998666 -44.20 0.051565 54.514
6.40300000 0.051383 36.904 0.998675 -44.21 0.998675 -44.21 0.051387 54.674
6.40320000 0.051199 36.706 0.998684 -44.23 0.998684 -44.23 0.051204 54.842
6.40340000 0.051009 36.499 0.998694 -44.25 0.998694 -44.25 0.051015 55.016
6.40360000 0.050813 36.283 0.998704 -44.26 0.998704 -44.26 0.050819 55.199
6.40380000 0.050611 36.058 0.998714 -44.28 0.998714 -44.28 0.050616 55.390
6.40400000 0.050401 35.823 0.998724 -44.30 0.998724 -44.30 0.050407 55.591
6.40420000 0.050184 35.576 0.998735 -44.32 0.998735 -44.32 0.050190 55.801
6.40440000 0.049959 35.318 0.998746 -44.33 0.998746 -44.33 0.049965 56.021
6.40460000 0.049726 35.047 0.998758 -44.35 0.998758 -44.35 0.049733 56.253
6.40480000 0.049484 34.762 0.998769 -44.37 0.998769 -44.37 0.049491 56.497
6.40500000 0.049233 34.463 0.998782 -44.40 0.998782 -44.40 0.049241 56.754
6.40520000 0.048973 34.148 0.998794 -44.42 0.998794 -44.42 0.048981 57.025
6.40540000 0.048703 33.817 0.998807 -44.44 0.998807 -44.44 0.048711 57.311
6.40560000 0.048422 33.466 0.998821 -44.47 0.998821 -44.47 0.048430 57.613
6.40580000 0.048130 33.096 0.998834 -44.49 0.998834 -44.49 0.048139 57.934
6.40600000 0.047826 32.704 0.998849 -44.52 0.998849 -44.52 0.047835 58.274
6.40620000 0.047509 32.288 0.998863 -44.54 0.998863 -44.54 0.047519 58.636
6.40640000 0.047179 31.846 0.998879 -44.57 0.998879 -44.57 0.047190 59.021
6.40660000 0.046836 31.376 0.998895 -44.60 0.998895 -44.60 0.046847 59.432
6.40680000 0.046477 30.875 0.998911 -44.63 0.998911 -44.63 0.046489 59.871
6.40700000 0.046103 30.339 0.998928 -44.67 0.998928 -44.67 0.046115 60.341
6.40720000 0.045712 29.766 0.998945 -44.70 0.998945 -44.70 0.045725 60.846
6.40740000 0.045304 29.150 0.998963 -44.74 0.998963 -44.74 0.045318 61.389
6.40760000 0.044877 28.488 0.998982 -44.78 0.998982 -44.78 0.044892 61.974
6.40780000 0.044431 27.773 0.999001 -44.82 0.999001 -44.82 0.044447 62.608
6.40800000 0.043964 27.000 0.999021 -44.86 0.999021 -44.86 0.043981 63.295
6.40820000 0.043476 26.162 0.999042 -44.91 0.999042 -44.91 0.043494 64.043
6.40840000 0.042965 25.250 0.999063 -44.96 0.999063 -44.96 0.042985 64.858
6.40860000 0.042431 24.253 0.999085 -45.01 0.999085 -45.01 0.042453 65.752
6.40880000 0.041873 23.162 0.999108 -45.06 0.999108 -45.06 0.041896 66.734
6.40900000 0.041290 21.961 0.999131 -45.12 0.999131 -45.12 0.041315 67.817
6.40920000 0.040682 20.634 0.999155 -45.19 0.999155 -45.19 0.040710 69.017
6.40940000 0.040050 19.163 0.999179 -45.26 0.999179 -45.26 0.040080 70.353
6.40960000 0.039394 17.523 0.999203 -45.33 0.999203 -45.33 0.039427 71.845
6.40980000 0.038717 15.687 0.999228 -45.41 0.999228 -45.41 0.038754 73.522
6.41000000 0.038023 13.622 0.999253 -45.50 0.999253 -45.50 0.038065 75.414
6.41020000 0.037320 11.286 0.999277 -45.59 0.999277 -45.59 0.037365 77.561
6.41040000 0.036616 8.6307 0.999301 -45.70 0.999301 -45.70 0.036667 80.009
6.41060000 0.035928 5.5984 0.999323 -45.81 0.999323 -45.81 0.035986 82.812
6.41080000 0.035280 2.1211 0.999342 -45.94 0.999342 -45.94 0.035345 86.034
6.41100000 0.034705 -1.879 0.999359 -46.08 0.999359 -46.08 0.034779 89.749
6.41120000 0.034254 -6.485 0.999369 -46.23 0.999369 -46.23 0.034338 94.034
6.41140000 0.033998 -11.78 0.999372 -46.41 0.999372 -46.41 0.034094 98.964
6.41160000 0.034039 -17.83 0.999364 -46.61 0.999364 -46.61 0.034148 104.59
6.41180000 0.034517 -24.65 0.999339 -46.84 0.999339 -46.84 0.034640 110.94
6.41200000 0.035615 -32.21 0.999290 -47.11 0.999290 -47.11 0.035754 117.93
6.41220000 0.037575 -40.36 0.999205 -47.41 0.999205 -47.41 0.037730 125.42
6.41240000 0.040698 -48.85 0.999066 -47.78 0.999066 -47.78 0.040868 133.13
6.41260000 0.045358 -57.40 0.998843 -48.22 0.998843 -48.22 0.045543 140.75
6.41280000 0.052042 -65.71 0.998486 -48.76 0.998486 -48.76 0.052242 147.93
6.41300000 0.061427 -73.58 0.997910 -49.44 0.997910 -49.44 0.061642 154.41
6.41320000 0.074538 -80.95 0.996954 -50.31 0.996954 -50.31 0.074771 159.98
6.41340000 0.093075 -87.87 0.995297 -51.48 0.995297 -51.48 0.093330 164.51
6.41360000 0.120255 -94.58 0.992215 -53.14 0.992215 -53.14 0.120541 167.85
!< P1 F=6.4136 Eeff=(5.67102968 -5.1683e-6) Z0=(55.9241619 2.54874e-5) R=0.00766529 C=0.00296641 
!< P2 F=6.4136 Eeff=(5.67102413 -5.1683e-6) Z0=(55.8943598 2.5474e-5) R=0.00767264 C=0.00296384 
6.41361000 0.121921 -94.92 0.992002 -53.24 0.992002 -53.24 0.122209 167.98
6.41362000 0.123622 -95.25 0.991780 -53.34 0.991780 -53.34 0.123912 168.10
6.41363000 0.125360 -95.59 0.991550 -53.44 0.991550 -53.44 0.125652 168.23
6.41364000 0.127137 -95.92 0.991312 -53.55 0.991312 -53.55 0.127431 168.34
6.41365000 0.128953 -96.26 0.991065 -53.66 0.991065 -53.66 0.129249 168.46
6.41366000 0.130810 -96.60 0.990809 -53.77 0.990809 -53.77 0.131108 168.57
6.41367000 0.132709 -96.94 0.990544 -53.88 0.990544 -53.88 0.133010 168.68
6.41368000 0.134652 -97.28 0.990268 -54.00 0.990268 -54.00 0.134954 168.78
6.41369000 0.136639 -97.62 0.989982 -54.12 0.989982 -54.12 0.136944 168.88
6.41370000 0.138672 -97.96 0.989684 -54.24 0.989684 -54.24 0.138980 168.97
6.41371000 0.140754 -98.30 0.989375 -54.36 0.989375 -54.36 0.141064 169.06
6.41372000 0.142884 -98.64 0.989054 -54.49 0.989054 -54.49 0.143197 169.14
6.41373000 0.145066 -98.99 0.988721 -54.62 0.988721 -54.62 0.145381 169.23
6.41374000 0.147300 -99.34 0.988374 -54.76 0.988374 -54.76 0.147618 169.30
6.41375000 0.149589 -99.69 0.988013 -54.89 0.988013 -54.89 0.149909 169.37
6.41376000 0.151935 -100.0 0.987637 -55.03 0.987637 -55.03 0.152257 169.44
6.41377000 0.154338 -100.4 0.987246 -55.17 0.987246 -55.17 0.154664 169.50
6.41378000 0.156802 -100.7 0.986838 -55.32 0.986838 -55.32 0.157130 169.56
6.41379000 0.159329 -101.1 0.986413 -55.47 0.986413 -55.47 0.159660 169.61
6.41380000 0.161920 -101.5 0.985971 -55.63 0.985971 -55.63 0.162254 169.65
6.41381000 0.164579 -101.8 0.985509 -55.78 0.985509 -55.78 0.164916 169.69
6.41382000 0.167307 -102.2 0.985027 -55.95 0.985027 -55.95 0.167648 169.73
6.41383000 0.170108 -102.6 0.984524 -56.11 0.984524 -56.11 0.170451 169.76
6.41384000 0.172983 -102.9 0.983999 -56.28 0.983999 -56.28 0.173330 169.78
6.41385000 0.175937 -103.3 0.983450 -56.46 0.983450 -56.46 0.176287 169.80
6.41386000 0.178971 -103.7 0.982876 -56.64 0.982876 -56.64 0.179325 169.81
6.41387000 0.182089 -104.1 0.982276 -56.82 0.982276 -56.82 0.182447 169.81
6.41388000 0.185295 -104.4 0.981648 -57.01 0.981648 -57.01 0.185656 169.81
6.41389000 0.188592 -104.8 0.980990 -57.21 0.980990 -57.21 0.188957 169.80
6.41390000 0.191983 -105.2 0.980301 -57.41 0.980301 -57.41 0.192352 169.79
6.41391000 0.195472 -105.6 0.979579 -57.62 0.979579 -57.62 0.195845 169.76
6.41392000 0.199064 -106.0 0.978822 -57.83 0.978822 -57.83 0.199441 169.73
6.41393000 0.202763 -106.4 0.978028 -58.05 0.978028 -58.05 0.203144 169.69
6.41394000 0.206573 -106.9 0.977193 -58.28 0.977193 -58.28 0.206959 169.65
6.41395000 0.210499 -107.3 0.976316 -58.51 0.976316 -58.51 0.210889 169.59
6.41396000 0.214546 -107.7 0.975395 -58.75 0.975395 -58.75 0.214941 169.53
6.41397000 0.218720 -108.1 0.974425 -59.00 0.974425 -59.00 0.219120 169.45
6.41398000 0.223026 -108.6 0.973404 -59.26 0.973404 -59.26 0.223431 169.37
6.41399000 0.227470 -109.0 0.972329 -59.52 0.972329 -59.52 0.227880 169.28
6.41400000 0.232059 -109.5 0.971195 -59.79 0.971195 -59.79 0.232474 169.18
6.41401000 0.236798 -109.9 0.969999 -60.08 0.969999 -60.08 0.237219 169.06
6.41402000 0.241696 -110.4 0.968737 -60.37 0.968737 -60.37 0.242123 168.94
6.41403000 0.246759 -110.9 0.967403 -60.67 0.967403 -60.67 0.247192 168.80
6.41404000 0.251996 -111.4 0.965992 -60.98 0.965992 -60.98 0.252435 168.66
6.41405000 0.257415 -111.9 0.964499 -61.31 0.964499 -61.31 0.257860 168.50
6.41406000 0.263025 -112.4 0.962918 -61.64 0.962918 -61.64 0.263476 168.32
6.41407000 0.268835 -112.9 0.961242 -61.99 0.961242 -61.99 0.269293 168.13
6.41408000 0.274855 -113.5 0.959464 -62.35 0.959464 -62.35 0.275320 167.93
6.41409000 0.281097 -114.0 0.957576 -62.73 0.957576 -62.73 0.281569 167.72
6.41410000 0.287571 -114.6 0.955569 -63.12 0.955569 -63.12 0.288050 167.48
6.41411000 0.294289 -115.1 0.953433 -63.53 0.953433 -63.53 0.294776 167.23
6.41412000 0.301264 -115.7 0.951159 -63.95 0.951159 -63.95 0.301760 166.96
6.41413000 0.308511 -116.3 0.948734 -64.39 0.948734 -64.39 0.309015 166.68
6.41414000 0.316042 -117.0 0.946147 -64.84 0.946147 -64.84 0.316555 166.37
6.41415000 0.323874 -117.6 0.943382 -65.32 0.943382 -65.32 0.324396 166.04
6.41416000 0.332023 -118.3 0.940426 -65.82 0.940426 -65.82 0.332555 165.69
6.41417000 0.340506 -119.0 0.937261 -66.34 0.937261 -66.34 0.341047 165.32
6.41418000 0.349342 -119.7 0.933867 -66.88 0.933867 -66.88 0.349893 164.92
6.41419000 0.358549 -120.4 0.930226 -67.45 0.930226 -67.45 0.359111 164.50
6.41420000 0.368149 -121.2 0.926313 -68.04 0.926313 -68.04 0.368722 164.04
6.41421000 0.378163 -121.9 0.922104 -68.66 0.922104 -68.66 0.378748 163.56
6.41422000 0.388614 -122.8 0.917570 -69.31 0.917570 -69.31 0.389211 163.05
6.41423000 0.399527 -123.6 0.912679 -70.00 0.912679 -70.00 0.400136 162.50
6.41424000 0.410926 -124.5 0.907398 -70.71 0.907398 -70.71 0.411548 161.92
6.41425000 0.422838 -125.4 0.901686 -71.47 0.901686 -71.47 0.423474 161.29
6.41426000 0.435291 -126.4 0.895501 -72.26 0.895501 -72.26 0.435942 160.63
6.41427000 0.448313 -127.4 0.888794 -73.09 0.888794 -73.09 0.448979 159.92
6.41428000 0.461934 -128.4 0.881512 -73.97 0.881512 -73.97 0.462615 159.17
6.41429000 0.476183 -129.5 0.873594 -74.90 0.873594 -74.90 0.476880 158.36
6.41430000 0.491089 -130.6 0.864974 -75.88 0.864974 -75.88 0.491803 157.50
6.41431000 0.506683 -131.9 0.855575 -76.91 0.855575 -76.91 0.507415 156.59
6.41432000 0.522993 -133.1 0.845316 -78.01 0.845316 -78.01 0.523743 155.61
6.41433000 0.540045 -134.4 0.834104 -79.16 0.834104 -79.16 0.540814 154.56
6.41434000 0.557862 -135.8 0.821834 -80.39 0.821834 -80.39 0.558651 153.44
6.41435000 0.576463 -137.3 0.808394 -81.69 0.808394 -81.69 0.577273 152.25
6.41436000 0.595860 -138.9 0.793657 -83.06 0.793657 -83.06 0.596692 150.97
6.41437000 0.616058 -140.5 0.777485 -84.52 0.777485 -84.52 0.616912 149.61
6.41438000 0.637048 -142.2 0.759727 -86.06 0.759727 -86.06 0.637925 148.15
6.41439000 0.658809 -144.0 0.740221 -87.70 0.740221 -87.70 0.659710 146.59
6.41440000 0.681300 -146.0 0.718792 -89.44 0.718792 -89.44 0.682226 144.93
6.41441000 0.704458 -148.0 0.695256 -91.29 0.695256 -91.29 0.705409 143.15
6.41442000 0.728193 -150.2 0.669423 -93.24 0.669423 -93.24 0.729169 141.26
6.41443000 0.750841 -152.3 0.642930 -95.17 0.642930 -95.17 0.751844 139.36
!< P1 F=6.41443 Eeff=(5.67102856 -5.169e-6) Z0=(55.9241627 2.54874e-5) R=0.00766356 C=0.00296642 
!< P2 F=6.41443 Eeff=(5.67102325 -5.169e-6) Z0=(55.8943618 2.5474e-5) R=0.00767179 C=0.00296385 
6.41443100 0.753273 -152.6 0.639975 -95.38 0.639975 -95.38 0.754278 139.16
6.41443200 0.755708 -152.8 0.636993 -95.59 0.636993 -95.59 0.756716 138.95
6.41443300 0.758146 -153.0 0.633985 -95.81 0.633985 -95.81 0.759156 138.74
6.41443400 0.760586 -153.3 0.630949 -96.02 0.630949 -96.02 0.761599 138.52
6.41443500 0.763028 -153.5 0.627885 -96.24 0.627885 -96.24 0.764043 138.31
6.41443600 0.765472 -153.7 0.624795 -96.45 0.624795 -96.45 0.766490 138.10
6.41443700 0.767919 -154.0 0.621676 -96.67 0.621676 -96.67 0.768939 137.88
6.41443800 0.770367 -154.2 0.618530 -96.89 0.618530 -96.89 0.771390 137.66
6.41443900 0.772816 -154.5 0.615356 -97.11 0.615356 -97.11 0.773842 137.45
6.41444000 0.775267 -154.7 0.612153 -97.34 0.612153 -97.34 0.776295 137.23
6.41444100 0.777719 -155.0 0.608922 -97.56 0.608922 -97.56 0.778750 137.01
6.41444200 0.780171 -155.2 0.605663 -97.78 0.605663 -97.78 0.781205 136.78
6.41444300 0.782625 -155.5 0.602375 -98.01 0.602375 -98.01 0.783661 136.56
6.41444400 0.785078 -155.7 0.599058 -98.23 0.599058 -98.23 0.786117 136.33
6.41444500 0.787532 -156.0 0.595712 -98.46 0.595712 -98.46 0.788573 136.11
6.41444600 0.789986 -156.2 0.592337 -98.69 0.592337 -98.69 0.791030 135.88
6.41444700 0.792439 -156.5 0.588933 -98.92 0.588933 -98.92 0.793485 135.65
6.41444800 0.794892 -156.7 0.585499 -99.15 0.585499 -99.15 0.795941 135.42
6.41444900 0.797343 -157.0 0.582036 -99.38 0.582036 -99.38 0.798395 135.19
6.41445000 0.799794 -157.3 0.578543 -99.62 0.578543 -99.62 0.800848 134.95
6.41445100 0.802243 -157.5 0.575020 -99.85 0.575020 -99.85 0.803300 134.72
6.41445200 0.804691 -157.8 0.571467 -100.1 0.571467 -100.1 0.805750 134.48
6.41445300 0.807136 -158.0 0.567884 -100.3 0.567884 -100.3 0.808198 134.25
6.41445400 0.809580 -158.3 0.564271 -100.6 0.564271 -100.6 0.810644 134.01
6.41445500 0.812021 -158.6 0.560627 -100.8 0.560627 -100.8 0.813087 133.77
6.41445600 0.814459 -158.8 0.556953 -101.0 0.556953 -101.0 0.815528 133.53
6.41445700 0.816894 -159.1 0.553248 -101.3 0.553248 -101.3 0.817965 133.28
6.41445800 0.819325 -159.4 0.549512 -101.5 0.549512 -101.5 0.820399 133.04
6.41445900 0.821753 -159.6 0.545746 -101.8 0.545746 -101.8 0.822830 132.79
6.41446000 0.824177 -159.9 0.541949 -102.0 0.541949 -102.0 0.825256 132.55
6.41446100 0.826596 -160.2 0.538120 -102.3 0.538120 -102.3 0.827678 132.30
6.41446200 0.829011 -160.5 0.534261 -102.5 0.534261 -102.5 0.830095 132.05
6.41446300 0.831421 -160.7 0.530370 -102.7 0.530370 -102.7 0.832507 131.80
6.41446400 0.833825 -161.0 0.526448 -103.0 0.526448 -103.0 0.834914 131.55
6.41446500 0.836224 -161.3 0.522495 -103.2 0.522495 -103.2 0.837315 131.29
6.41446600 0.838617 -161.6 0.518510 -103.5 0.518510 -103.5 0.839711 131.04
6.41446700 0.841004 -161.9 0.514493 -103.7 0.514493 -103.7 0.842100 130.78
6.41446800 0.843383 -162.1 0.510446 -104.0 0.510446 -104.0 0.844482 130.52
6.41446900 0.845756 -162.4 0.506366 -104.3 0.506366 -104.3 0.846857 130.27
6.41447000 0.848122 -162.7 0.502255 -104.5 0.502255 -104.5 0.849225 130.00
6.41447100 0.850479 -163.0 0.498112 -104.8 0.498112 -104.8 0.851585 129.74
6.41447200 0.852829 -163.3 0.493938 -105.0 0.493938 -105.0 0.853937 129.48
6.41447300 0.855170 -163.6 0.489731 -105.3 0.489731 -105.3 0.856280 129.22
6.41447400 0.857503 -163.9 0.485493 -105.5 0.485493 -105.5 0.858615 128.95
6.41447500 0.859826 -164.2 0.481224 -105.8 0.481224 -105.8 0.860940 128.68
6.41447600 0.862139 -164.5 0.476922 -106.1 0.476922 -106.1 0.863256 128.41
6.41447700 0.864443 -164.8 0.472589 -106.3 0.472589 -106.3 0.865562 128.14
6.41447800 0.866736 -165.0 0.468224 -106.6 0.468224 -106.6 0.867857 127.87
6.41447900 0.869018 -165.3 0.463827 -106.8 0.463827 -106.8 0.870142 127.60
6.41448000 0.871290 -165.6 0.459399 -107.1 0.459399 -107.1 0.872415 127.33
6.41448100 0.873549 -165.9 0.454939 -107.4 0.454939 -107.4 0.874677 127.05
6.41448200 0.875797 -166.2 0.450447 -107.6 0.450447 -107.6 0.876927 126.77
6.41448300 0.878033 -166.5 0.445924 -107.9 0.445924 -107.9 0.879165 126.50
6.41448400 0.880255 -166.9 0.441369 -108.2 0.441369 -108.2 0.881390 126.22
6.41448500 0.882465 -167.2 0.436783 -108.4 0.436783 -108.4 0.883601 125.94
6.41448600 0.884661 -167.5 0.432166 -108.7 0.432166 -108.7 0.885799 125.66
6.41448700 0.886843 -167.8 0.427517 -109.0 0.427517 -109.0 0.887983 125.37
6.41448800 0.889010 -168.1 0.422837 -109.2 0.422837 -109.2 0.890153 125.09
6.41448900 0.891163 -168.4 0.418127 -109.5 0.418127 -109.5 0.892308 124.80
6.41449000 0.893301 -168.7 0.413385 -109.8 0.413385 -109.8 0.894447 124.52
6.41449100 0.895422 -169.0 0.408613 -110.0 0.408613 -110.0 0.896571 124.23
6.41449200 0.897528 -169.3 0.403810 -110.3 0.403810 -110.3 0.898679 123.94
6.41449300 0.899617 -169.6 0.398976 -110.6 0.398976 -110.6 0.900770 123.65
6.41449400 0.901690 -170.0 0.394112 -110.8 0.394112 -110.8 0.902844 123.36
6.41449500 0.903745 -170.3 0.389218 -111.1 0.389218 -111.1 0.904901 123.06
6.41449600 0.905782 -170.6 0.384295 -111.4 0.384295 -111.4 0.906940 122.77
6.41449700 0.907801 -170.9 0.379341 -111.7 0.379341 -111.7 0.908961 122.48
6.41449800 0.909801 -171.2 0.374358 -111.9 0.374358 -111.9 0.910963 122.18
6.41449900 0.911782 -171.6 0.369345 -112.2 0.369345 -112.2 0.912946 121.88
6.41450000 0.913744 -171.9 0.364304 -112.5 0.364304 -112.5 0.914909 121.58
6.41450100 0.915686 -172.2 0.359233 -112.7 0.359233 -112.7 0.916853 121.28
6.41450200 0.917607 -172.5 0.354134 -113.0 0.354134 -113.0 0.918776 120.98
6.41450300 0.919508 -172.9 0.349007 -113.3 0.349007 -113.3 0.920678 120.68
6.41450400 0.921387 -173.2 0.343851 -113.5 0.343851 -113.5 0.922559 120.38
6.41450500 0.923245 -173.5 0.338668 -113.8 0.338668 -113.8 0.924418 120.07
6.41450600 0.925080 -173.9 0.333457 -114.1 0.333457 -114.1 0.926256 119.77
6.41450700 0.926894 -174.2 0.328218 -114.3 0.328218 -114.3 0.928070 119.46
6.41450800 0.928684 -174.5 0.322953 -114.6 0.322953 -114.6 0.929862 119.15
6.41450900 0.930451 -174.9 0.317662 -114.9 0.317662 -114.9 0.931631 118.85
6.41451000 0.932194 -175.2 0.312344 -115.1 0.312344 -115.1 0.933375 118.54
6.41451100 0.933913 -175.5 0.307000 -115.4 0.307000 -115.4 0.935096 118.23
6.41451200 0.935608 -175.9 0.301631 -115.7 0.301631 -115.7 0.936792 117.92
6.41451300 0.937278 -176.2 0.296237 -115.9 0.296237 -115.9 0.938463 117.60
6.41451400 0.938922 -176.5 0.290818 -116.2 0.290818 -116.2 0.940108 117.29
6.41451500 0.940540 -176.9 0.285374 -116.4 0.285374 -116.4 0.941728 116.98
6.41451600 0.942133 -177.2 0.279907 -116.7 0.279907 -116.7 0.943321 116.66
6.41451700 0.943698 -177.5 0.274416 -117.0 0.274416 -117.0 0.944888 116.34
6.41451800 0.945237 -177.9 0.268902 -117.2 0.268902 -117.2 0.946428 116.03
6.41451900 0.946749 -178.2 0.263366 -117.5 0.263366 -117.5 0.947941 115.71
6.41452000 0.948233 -178.6 0.257807 -117.7 0.257807 -117.7 0.949426 115.39
6.41452100 0.949688 -178.9 0.252227 -117.9 0.252227 -117.9 0.950883 115.07
6.41452200 0.951116 -179.3 0.246626 -118.2 0.246626 -118.2 0.952311 114.75
6.41452300 0.952514 -179.6 0.241004 -118.4 0.241004 -118.4 0.953711 114.43
6.41452400 0.953884 -180.0 0.235362 -118.6 0.235362 -118.6 0.955081 114.11
6.41452500 0.955224 179.70 0.229700 -118.9 0.229700 -118.9 0.956422 113.79
6.41452600 0.956534 179.35 0.224019 -119.1 0.224019 -119.1 0.957733 113.46
6.41452700 0.957814 179.00 0.218320 -119.3 0.218320 -119.3 0.959014 113.14
6.41452800 0.959063 178.65 0.212603 -119.5 0.212603 -119.5 0.960264 112.82
6.41452900 0.960282 178.30 0.206869 -119.7 0.206869 -119.7 0.961484 112.49
6.41453000 0.961470 177.95 0.201118 -119.9 0.201118 -119.9 0.962672 112.16
6.41453100 0.962626 177.60 0.195351 -120.1 0.195351 -120.1 0.963829 111.84
6.41453200 0.963751 177.25 0.189569 -120.3 0.189569 -120.3 0.964954 111.51
6.41453300 0.964843 176.90 0.183772 -120.4 0.183772 -120.4 0.966047 111.18
6.41453400 0.965904 176.54 0.177962 -120.6 0.177962 -120.6 0.967108 110.85
6.41453500 0.966932 176.19 0.172138 -120.7 0.172138 -120.7 0.968137 110.53
6.41453600 0.967927 175.84 0.166302 -120.9 0.166302 -120.9 0.969132 110.20
6.41453700 0.968889 175.48 0.160454 -121.0 0.160454 -121.0 0.970095 109.87
6.41453800 0.969818 175.13 0.154596 -121.1 0.154596 -121.1 0.971024 109.54
6.41453900 0.970713 174.77 0.148728 -121.2 0.148728 -121.2 0.971920 109.21
6.41454000 0.971575 174.42 0.142852 -121.2 0.142852 -121.2 0.972782 108.88
6.41454100 0.972402 174.06 0.136967 -121.3 0.136967 -121.3 0.973610 108.54
6.41454200 0.973196 173.71 0.131076 -121.3 0.131076 -121.3 0.974403 108.21
6.41454300 0.973955 173.35 0.125180 -121.2 0.125180 -121.2 0.975163 107.88
6.41454400 0.974680 172.99 0.119280 -121.2 0.119280 -121.2 0.975888 107.55
6.41454500 0.975370 172.64 0.113377 -121.1 0.113377 -121.1 0.976578 107.22
6.41454600 0.976026 172.28 0.107473 -120.9 0.107473 -120.9 0.977234 106.88
6.41454700 0.976646 171.92 0.101571 -120.7 0.101571 -120.7 0.977854 106.55
6.41454800 0.977232 171.57 0.095673 -120.4 0.095673 -120.4 0.978439 106.22
6.41454900 0.977782 171.21 0.089781 -120.1 0.089781 -120.1 0.978989 105.88
6.41455000 0.978297 170.85 0.083899 -119.6 0.083899 -119.6 0.979504 105.55
6.41455100 0.978776 170.49 0.078031 -119.0 0.078031 -119.0 0.979983 105.22
6.41455200 0.979220 170.13 0.072182 -118.3 0.072182 -118.3 0.980427 104.88
6.41455300 0.979629 169.78 0.066360 -117.4 0.066360 -117.4 0.980835 104.55
6.41455400 0.980001 169.42 0.060573 -116.2 0.060573 -116.2 0.981208 104.21
6.41455500 0.980339 169.06 0.054835 -114.7 0.054835 -114.7 0.981545 103.88
6.41455600 0.980640 168.70 0.049165 -112.8 0.049165 -112.8 0.981846 103.55
6.41455700 0.980906 168.34 0.043589 -110.3 0.043589 -110.3 0.982111 103.21
6.41455800 0.981135 167.99 0.038152 -107.0 0.038152 -107.0 0.982340 102.88
6.41455900 0.981330 167.63 0.032922 -102.4 0.032922 -102.4 0.982534 102.54
6.41456000 0.981488 167.27 0.028016 -96.17 0.028016 -96.17 0.982691 102.21
6.41456100 0.981610 166.91 0.023637 -87.28 0.023637 -87.28 0.982813 101.88
6.41456200 0.981697 166.55 0.020130 -74.72 0.020130 -74.72 0.982899 101.54
6.41456300 0.981748 166.20 0.018011 -58.04 0.018011 -58.04 0.982950 101.21
!< P1 F=6.414563 Eeff=(5.67102912 -5.1689e-6) Z0=(55.9241605 2.54918e-5) R=0.00766148 C=0.00296642 
!< P2 F=6.414563 Eeff=(5.67102376 -5.1677e-6) Z0=(55.8943594 2.5474e-5) R=0.00766844 C=0.00296385 
6.41456400 0.981764 165.84 0.017791 -38.76 0.017791 -38.76 0.982964 100.87
6.41456500 0.981743 165.47 0.019573 -21.12 0.019573 -21.12 0.982942 100.53
6.41456600 0.981685 165.11 0.022891 -7.591 0.022891 -7.591 0.982884 100.20
6.41456700 0.981591 164.75 0.027184 1.9972 0.027184 1.9972 0.982789 99.859
6.41456800 0.981460 164.39 0.032059 8.7200 0.032059 8.7200 0.982658 99.522
6.41456900 0.981294 164.03 0.037286 13.516 0.037286 13.516 0.982490 99.185
6.41457000 0.981091 163.67 0.042731 17.021 0.042731 17.021 0.982286 98.849
6.41457100 0.980853 163.31 0.048317 19.643 0.048317 19.643 0.982047 98.513
6.41457200 0.980578 162.95 0.053998 21.642 0.053998 21.642 0.981771 98.178
6.41457300 0.980268 162.59 0.059743 23.191 0.059743 23.191 0.981460 97.843
6.41457400 0.979923 162.23 0.065532 24.404 0.065532 24.404 0.981114 97.508
6.41457500 0.979542 161.87 0.071351 25.362 0.071351 25.362 0.980732 97.174
6.41457600 0.979127 161.52 0.077190 26.122 0.077190 26.122 0.980315 96.841
6.41457700 0.978676 161.16 0.083042 26.725 0.083042 26.725 0.979863 96.508
6.41457800 0.978191 160.80 0.088902 27.202 0.088902 27.202 0.979376 96.175
6.41457900 0.977671 160.45 0.094764 27.578 0.094764 27.578 0.978855 95.843
6.41458000 0.977117 160.09 0.100626 27.869 0.100626 27.869 0.978300 95.512
6.41458100 0.976530 159.74 0.106484 28.089 0.106484 28.089 0.977711 95.181
6.41458200 0.975908 159.38 0.112337 28.251 0.112337 28.251 0.977088 94.851
6.41458300 0.975253 159.03 0.118182 28.363 0.118182 28.363 0.976431 94.522
6.41458400 0.974565 158.68 0.124018 28.431 0.124018 28.431 0.975742 94.193
6.41458500 0.973845 158.32 0.129843 28.463 0.129843 28.463 0.975019 93.865
6.41458600 0.973091 157.97 0.135656 28.463 0.135656 28.463 0.974264 93.538
6.41458700 0.972305 157.62 0.141455 28.436 0.141455 28.436 0.973477 93.211
6.41458800 0.971488 157.27 0.147240 28.384 0.147240 28.384 0.972657 92.886
6.41458900 0.970639 156.92 0.153009 28.310 0.153009 28.310 0.971806 92.561
6.41459000 0.969758 156.58 0.158762 28.218 0.158762 28.218 0.970924 92.237
6.41459100 0.968846 156.23 0.164498 28.109 0.164498 28.109 0.970010 91.913
6.41459200 0.967904 155.88 0.170216 27.985 0.170216 27.985 0.969066 91.591
6.41459300 0.966931 155.54 0.175916 27.847 0.175916 27.847 0.968092 91.269
6.41459400 0.965929 155.19 0.181596 27.698 0.181596 27.698 0.967087 90.948
6.41459500 0.964897 154.85 0.187256 27.538 0.187256 27.538 0.966053 90.629
6.41459600 0.963835 154.51 0.192895 27.369 0.192895 27.369 0.964989 90.310
6.41459700 0.962745 154.16 0.198513 27.191 0.198513 27.191 0.963897 89.992
6.41459800 0.961626 153.82 0.204110 27.005 0.204110 27.005 0.962776 89.675
6.41459900 0.960479 153.48 0.209684 26.812 0.209684 26.812 0.961627 89.359
6.41460000 0.959304 153.15 0.215235 26.613 0.215235 26.613 0.960450 89.044
6.41460100 0.958102 152.81 0.220763 26.408 0.220763 26.408 0.959246 88.730
6.41460200 0.956873 152.47 0.226268 26.197 0.226268 26.197 0.958015 88.417
6.41460300 0.955618 152.14 0.231747 25.982 0.231747 25.982 0.956757 88.105
6.41460400 0.954336 151.80 0.237203 25.763 0.237203 25.763 0.955473 87.794
6.41460500 0.953028 151.47 0.242633 25.540 0.242633 25.540 0.954163 87.484
6.41460600 0.951695 151.14 0.248038 25.313 0.248038 25.313 0.952828 87.176
6.41460700 0.950338 150.80 0.253417 25.083 0.253417 25.083 0.951468 86.868
6.41460800 0.948955 150.47 0.258769 24.851 0.258769 24.851 0.950083 86.562
6.41460900 0.947549 150.15 0.264096 24.615 0.264096 24.615 0.948674 86.256
6.41461000 0.946118 149.82 0.269395 24.378 0.269395 24.378 0.947241 85.952
6.41461100 0.944665 149.49 0.274667 24.138 0.274667 24.138 0.945785 85.649
6.41461200 0.943189 149.17 0.279911 23.896 0.279911 23.896 0.944307 85.347