! Sonnet Data File
! From: em Version : 14.52
! From Project: w3
! Data is De-embedded 
! Data File Written: 07/06/2018 11:06:26
!< HDATE 07/02/2018 16:00:00
!< MDATE 07/05/2018 17:30:05
# GHZ S MA R 50.00000
6.00000000 0.022316 51.446 0.999751 -40.41 0.999751 -40.41 0.022316 47.730
!< P1 F=6.0 Eeff=(5.6709488 -5.1692e-6) Z0=(51.6134859 2.3525e-5) R=0.0080482 C=0.00301522 
!< P2 F=6.0 Eeff=(5.6709488 -5.1692e-6) Z0=(51.6134859 2.3525e-5) R=0.0080482 C=0.00301522 
6.00500000 0.022332 51.415 0.999750 -40.45 0.999750 -40.45 0.022331 47.694
6.01000000 0.022347 51.384 0.999750 -40.48 0.999750 -40.48 0.022346 47.659
6.01500000 0.022363 51.353 0.999750 -40.51 0.999750 -40.51 0.022362 47.624
6.02000000 0.022378 51.321 0.999750 -40.55 0.999750 -40.55 0.022377 47.589
6.02500000 0.022393 51.290 0.999750 -40.58 0.999750 -40.58 0.022392 47.553
6.03000000 0.022409 51.259 0.999750 -40.62 0.999750 -40.62 0.022407 47.518
6.03500000 0.022424 51.228 0.999749 -40.65 0.999749 -40.65 0.022422 47.483
6.04000000 0.022439 51.197 0.999749 -40.68 0.999749 -40.68 0.022437 47.448
6.04500000 0.022455 51.165 0.999749 -40.72 0.999749 -40.72 0.022452 47.413
6.05000000 0.022470 51.134 0.999749 -40.75 0.999749 -40.75 0.022467 47.377
6.05500000 0.022485 51.103 0.999749 -40.78 0.999749 -40.78 0.022482 47.342
6.06000000 0.022500 51.071 0.999749 -40.82 0.999749 -40.82 0.022497 47.307
6.06500000 0.022516 51.040 0.999748 -40.85 0.999748 -40.85 0.022512 47.272
6.07000000 0.022531 51.009 0.999748 -40.88 0.999748 -40.88 0.022527 47.236
6.07500000 0.022546 50.977 0.999748 -40.92 0.999748 -40.92 0.022542 47.201
6.08000000 0.022561 50.946 0.999748 -40.95 0.999748 -40.95 0.022557 47.166
6.08500000 0.022576 50.914 0.999747 -40.99 0.999747 -40.99 0.022572 47.131
6.09000000 0.022592 50.883 0.999747 -41.02 0.999747 -41.02 0.022587 47.096
6.09500000 0.022607 50.851 0.999747 -41.05 0.999747 -41.05 0.022602 47.060
6.10000000 0.022622 50.819 0.999747 -41.09 0.999747 -41.09 0.022617 47.025
6.10500000 0.022637 50.788 0.999747 -41.12 0.999747 -41.12 0.022632 46.990
6.11000000 0.022652 50.756 0.999746 -41.15 0.999746 -41.15 0.022647 46.955
6.11500000 0.022667 50.725 0.999746 -41.19 0.999746 -41.19 0.022662 46.920
6.12000000 0.022682 50.693 0.999746 -41.22 0.999746 -41.22 0.022676 46.884
6.12500000 0.022697 50.661 0.999746 -41.26 0.999746 -41.26 0.022691 46.849
6.13000000 0.022713 50.629 0.999745 -41.29 0.999745 -41.29 0.022706 46.814
6.13500000 0.022728 50.598 0.999745 -41.32 0.999745 -41.32 0.022721 46.779
6.14000000 0.022743 50.566 0.999745 -41.36 0.999745 -41.36 0.022736 46.743
6.14500000 0.022758 50.534 0.999744 -41.39 0.999744 -41.39 0.022751 46.708
6.15000000 0.022773 50.502 0.999744 -41.42 0.999744 -41.42 0.022766 46.673
6.15500000 0.022788 50.470 0.999744 -41.46 0.999744 -41.46 0.022781 46.638
6.16000000 0.022803 50.438 0.999744 -41.49 0.999744 -41.49 0.022796 46.603
6.16500000 0.022818 50.406 0.999743 -41.52 0.999743 -41.52 0.022811 46.567
6.17000000 0.022832 50.375 0.999743 -41.56 0.999743 -41.56 0.022825 46.532
6.17500000 0.022847 50.343 0.999743 -41.59 0.999743 -41.59 0.022840 46.497
6.18000000 0.022862 50.311 0.999742 -41.63 0.999742 -41.63 0.022855 46.462
6.18500000 0.022877 50.279 0.999742 -41.66 0.999742 -41.66 0.022870 46.427
6.19000000 0.022892 50.246 0.999742 -41.69 0.999742 -41.69 0.022885 46.392
6.19500000 0.022907 50.214 0.999742 -41.73 0.999742 -41.73 0.022900 46.356
6.20000000 0.022922 50.182 0.999741 -41.76 0.999741 -41.76 0.022914 46.321
6.20500000 0.022937 50.150 0.999741 -41.79 0.999741 -41.79 0.022929 46.286
6.21000000 0.022951 50.118 0.999741 -41.83 0.999741 -41.83 0.022944 46.251
6.21500000 0.022966 50.086 0.999740 -41.86 0.999740 -41.86 0.022959 46.216
6.22000000 0.022981 50.054 0.999740 -41.90 0.999740 -41.90 0.022973 46.181
6.22500000 0.022996 50.021 0.999740 -41.93 0.999740 -41.93 0.022988 46.145
6.23000000 0.023010 49.989 0.999739 -41.96 0.999739 -41.96 0.023003 46.110
6.23500000 0.023025 49.957 0.999739 -42.00 0.999739 -42.00 0.023018 46.075
6.24000000 0.023040 49.925 0.999739 -42.03 0.999739 -42.03 0.023032 46.040
6.24500000 0.023054 49.892 0.999738 -42.06 0.999738 -42.06 0.023047 46.005
6.25000000 0.023069 49.860 0.999738 -42.10 0.999738 -42.10 0.023062 45.970
6.25500000 0.023084 49.828 0.999738 -42.13 0.999738 -42.13 0.023076 45.935
6.26000000 0.023098 49.795 0.999737 -42.16 0.999737 -42.16 0.023091 45.900
6.26500000 0.023113 49.763 0.999737 -42.20 0.999737 -42.20 0.023105 45.865
6.27000000 0.023127 49.730 0.999737 -42.23 0.999737 -42.23 0.023120 45.830
6.27500000 0.023142 49.698 0.999736 -42.27 0.999736 -42.27 0.023135 45.794
6.28000000 0.023156 49.666 0.999736 -42.30 0.999736 -42.30 0.023149 45.759
6.28500000 0.023171 49.633 0.999736 -42.33 0.999736 -42.33 0.023164 45.724
6.29000000 0.023185 49.600 0.999735 -42.37 0.999735 -42.37 0.023178 45.689
6.29500000 0.023200 49.568 0.999735 -42.40 0.999735 -42.40 0.023193 45.654
6.30000000 0.023214 49.535 0.999734 -42.43 0.999734 -42.43 0.023207 45.619
6.30500000 0.023229 49.503 0.999734 -42.47 0.999734 -42.47 0.023222 45.584
6.31000000 0.023243 49.470 0.999734 -42.50 0.999734 -42.50 0.023236 45.549
6.31500000 0.023257 49.437 0.999733 -42.54 0.999733 -42.54 0.023250 45.514
6.32000000 0.023272 49.405 0.999733 -42.57 0.999733 -42.57 0.023265 45.479
6.32500000 0.023286 49.372 0.999733 -42.60 0.999733 -42.60 0.023279 45.444
6.33000000 0.023300 49.339 0.999732 -42.64 0.999732 -42.64 0.023294 45.409
6.33500000 0.023315 49.307 0.999732 -42.67 0.999732 -42.67 0.023308 45.375
6.34000000 0.023329 49.274 0.999731 -42.70 0.999731 -42.70 0.023322 45.340
6.34500000 0.023343 49.241 0.999731 -42.74 0.999731 -42.74 0.023336 45.305
6.35000000 0.023357 49.208 0.999731 -42.77 0.999731 -42.77 0.023351 45.270
6.35500000 0.023371 49.175 0.999730 -42.81 0.999730 -42.81 0.023365 45.235
6.36000000 0.023385 49.142 0.999730 -42.84 0.999730 -42.84 0.023379 45.200
6.36500000 0.023399 49.109 0.999730 -42.87 0.999730 -42.87 0.023393 45.165
6.37000000 0.023413 49.076 0.999729 -42.91 0.999729 -42.91 0.023407 45.131
6.37500000 0.023427 49.043 0.999729 -42.94 0.999729 -42.94 0.023421 45.096
6.38000000 0.023441 49.010 0.999728 -42.97 0.999728 -42.97 0.023435 45.061
6.38500000 0.023455 48.977 0.999728 -43.01 0.999728 -43.01 0.023449 45.027
6.39000000 0.023469 48.944 0.999728 -43.04 0.999728 -43.04 0.023463 44.992
6.39500000 0.023483 48.911 0.999727 -43.08 0.999727 -43.08 0.023477 44.957
6.40000000 0.023496 48.878 0.999727 -43.11 0.999727 -43.11 0.023491 44.923
6.40500000 0.023510 48.844 0.999727 -43.14 0.999727 -43.14 0.023505 44.888
6.41000000 0.023524 48.811 0.999726 -43.18 0.999726 -43.18 0.023519 44.853
6.41500000 0.023537 48.778 0.999726 -43.21 0.999726 -43.21 0.023532 44.819
6.42000000 0.023551 48.744 0.999725 -43.24 0.999725 -43.24 0.023546 44.784
6.42500000 0.023565 48.711 0.999725 -43.28 0.999725 -43.28 0.023560 44.750
6.43000000 0.023578 48.678 0.999725 -43.31 0.999725 -43.31 0.023573 44.716
6.43500000 0.023591 48.644 0.999724 -43.35 0.999724 -43.35 0.023587 44.681
6.44000000 0.023605 48.610 0.999724 -43.38 0.999724 -43.38 0.023600 44.647
6.44500000 0.023618 48.577 0.999723 -43.41 0.999723 -43.41 0.023614 44.613
6.45000000 0.023631 48.543 0.999723 -43.45 0.999723 -43.45 0.023627 44.578
6.45500000 0.023644 48.509 0.999723 -43.48 0.999723 -43.48 0.023640 44.544
6.46000000 0.023658 48.476 0.999722 -43.51 0.999722 -43.51 0.023653 44.510
6.46500000 0.023671 48.442 0.999722 -43.55 0.999722 -43.55 0.023667 44.476
6.47000000 0.023683 48.408 0.999722 -43.58 0.999722 -43.58 0.023680 44.442
6.47500000 0.023696 48.374 0.999721 -43.62 0.999721 -43.62 0.023693 44.408
6.48000000 0.023709 48.340 0.999721 -43.65 0.999721 -43.65 0.023705 44.374
6.48500000 0.023722 48.305 0.999720 -43.68 0.999720 -43.68 0.023718 44.341
6.49000000 0.023734 48.271 0.999720 -43.72 0.999720 -43.72 0.023731 44.307
6.49500000 0.023747 48.237 0.999720 -43.75 0.999720 -43.75 0.023743 44.274
6.50000000 0.023759 48.202 0.999719 -43.78 0.999719 -43.78 0.023756 44.240
6.50500000 0.023771 48.167 0.999719 -43.82 0.999719 -43.82 0.023768 44.207
6.51000000 0.023783 48.133 0.999719 -43.85 0.999719 -43.85 0.023780 44.173
6.51500000 0.023795 48.098 0.999718 -43.89 0.999718 -43.89 0.023792 44.140
6.52000000 0.023807 48.063 0.999718 -43.92 0.999718 -43.92 0.023804 44.107
6.52500000 0.023819 48.027 0.999718 -43.95 0.999718 -43.95 0.023816 44.074
6.53000000 0.023830 47.992 0.999717 -43.99 0.999717 -43.99 0.023828 44.042
6.53500000 0.023841 47.956 0.999717 -44.02 0.999717 -44.02 0.023839 44.009
6.54000000 0.023852 47.921 0.999717 -44.06 0.999717 -44.06 0.023850 43.977
6.54500000 0.023863 47.885 0.999716 -44.09 0.999716 -44.09 0.023861 43.945
6.55000000 0.023874 47.848 0.999716 -44.12 0.999716 -44.12 0.023872 43.913
6.55500000 0.023884 47.812 0.999716 -44.16 0.999716 -44.16 0.023882 43.881
6.56000000 0.023894 47.775 0.999715 -44.19 0.999715 -44.19 0.023892 43.850
6.56500000 0.023904 47.738 0.999715 -44.23 0.999715 -44.23 0.023902 43.819
6.57000000 0.023913 47.700 0.999715 -44.26 0.999715 -44.26 0.023911 43.788
6.57500000 0.023922 47.663 0.999714 -44.29 0.999714 -44.29 0.023921 43.757
6.58000000 0.023931 47.624 0.999714 -44.33 0.999714 -44.33 0.023929 43.727
6.58500000 0.023939 47.585 0.999714 -44.36 0.999714 -44.36 0.023937 43.698
6.59000000 0.023946 47.546 0.999714 -44.40 0.999714 -44.40 0.023945 43.669
6.59500000 0.023953 47.506 0.999713 -44.43 0.999713 -44.43 0.023952 43.640
6.60000000 0.023959 47.465 0.999713 -44.46 0.999713 -44.46 0.023958 43.612
6.60500000 0.023964 47.424 0.999713 -44.50 0.999713 -44.50 0.023963 43.585
6.61000000 0.023969 47.381 0.999713 -44.53 0.999713 -44.53 0.023968 43.559
6.61500000 0.023972 47.338 0.999713 -44.57 0.999713 -44.57 0.023971 43.533
6.62000000 0.023974 47.293 0.999713 -44.60 0.999713 -44.60 0.023974 43.509
6.62500000 0.023975 47.246 0.999713 -44.64 0.999713 -44.64 0.023975 43.486
6.63000000 0.023974 47.198 0.999713 -44.67 0.999713 -44.67 0.023974 43.465
6.63500000 0.023971 47.148 0.999713 -44.70 0.999713 -44.70 0.023971 43.446
6.64000000 0.023966 47.095 0.999713 -44.74 0.999713 -44.74 0.023965 43.429
6.64500000 0.023957 47.038 0.999713 -44.78 0.999713 -44.78 0.023957 43.415
6.65000000 0.023945 46.978 0.999713 -44.81 0.999713 -44.81 0.023945 43.404
6.65500000 0.023928 46.913 0.999714 -44.85 0.999714 -44.85 0.023928 43.398
6.66000000 0.023905 46.841 0.999714 -44.88 0.999714 -44.88 0.023905 43.398
6.66500000 0.023874 46.760 0.999715 -44.92 0.999715 -44.92 0.023873 43.406
6.67000000 0.023831 46.667 0.999716 -44.96 0.999716 -44.96 0.023831 43.424
6.67500000 0.023773 46.556 0.999717 -44.99 0.999717 -44.99 0.023773 43.458
6.68000000 0.023692 46.420 0.999719 -45.03 0.999719 -45.03 0.023692 43.515
6.68500000 0.023574 46.243 0.999722 -45.08 0.999722 -45.08 0.023574 43.609
6.69000000 0.023393 45.993 0.999726 -45.12 0.999726 -45.12 0.023393 43.767
6.69500000 0.023093 45.602 0.999733 -45.17 0.999733 -45.17 0.023093 44.052
6.70000000 0.022512 44.862 0.999746 -45.25 0.999746 -45.25 0.022513 44.651
6.70500000 0.020977 42.788 0.999778 -45.38 0.999778 -45.38 0.020979 46.468
6.71000000 0.009511 -9.897 0.999898 -46.38 0.999898 -46.38 0.009621 97.282
!< P1 F=6.71 Eeff=(5.67090075 -5.1692e-6) Z0=(51.6131409 2.3525e-5) R=0.00720005 C=0.00301518 
!< P2 F=6.71 Eeff=(5.67090075 -5.1692e-6) Z0=(51.6131409 2.3525e-5) R=0.00720005 C=0.00301518 
6.71010000 0.009299 -22.12 0.999889 -46.49 0.999889 -46.49 0.009433 109.14
6.71020000 0.009606 -36.87 0.999871 -46.63 0.999871 -46.63 0.009765 123.36
6.71030000 0.010758 -52.72 0.999838 -46.80 0.999838 -46.80 0.010936 138.57
6.71040000 0.013098 -67.55 0.999781 -47.02 0.999781 -47.02 0.013286 152.69
6.71050000 0.017006 -79.96 0.999676 -47.31 0.999676 -47.31 0.017200 164.34
6.71060000 0.023079 -89.79 0.999482 -47.71 0.999482 -47.71 0.023280 173.25
6.71070000 0.032519 -97.59 0.999091 -48.28 0.999091 -48.28 0.032735 179.76
6.71080000 0.047948 -104.1 0.998211 -49.20 0.998211 -49.20 0.048195 -175.8
!< P1 F=6.7108 Eeff=(5.6709006 -5.1688e-6) Z0=(51.6131411 2.3525e-5) R=0.00720336 C=0.00301518 
!< P2 F=6.7108 Eeff=(5.6709006 -5.1688e-6) Z0=(51.6131411 2.3525e-5) R=0.00720336 C=0.00301518 
6.71080200 0.048356 -104.2 0.998184 -49.22 0.998184 -49.22 0.048603 -175.7
6.71080400 0.048769 -104.3 0.998156 -49.24 0.998156 -49.24 0.049017 -175.7
6.71080600 0.049187 -104.4 0.998128 -49.27 0.998128 -49.27 0.049436 -175.6
6.71080800 0.049610 -104.6 0.998099 -49.29 0.998099 -49.29 0.049860 -175.5
6.71081000 0.050038 -104.7 0.998069 -49.32 0.998069 -49.32 0.050289 -175.5
6.71081200 0.050472 -104.8 0.998039 -49.34 0.998039 -49.34 0.050724 -175.4
6.71081400 0.050912 -104.9 0.998008 -49.37 0.998008 -49.37 0.051164 -175.3
6.71081600 0.051356 -105.0 0.997977 -49.40 0.997977 -49.40 0.051610 -175.3
6.71081800 0.051807 -105.2 0.997945 -49.42 0.997945 -49.42 0.052062 -175.2
6.71082000 0.052263 -105.3 0.997912 -49.45 0.997912 -49.45 0.052519 -175.2
6.71082200 0.052726 -105.4 0.997878 -49.48 0.997878 -49.48 0.052982 -175.1
6.71082400 0.053194 -105.5 0.997844 -49.50 0.997844 -49.50 0.053451 -175.0
6.71082600 0.053668 -105.6 0.997809 -49.53 0.997809 -49.53 0.053927 -175.0
6.71082800 0.054149 -105.8 0.997774 -49.56 0.997774 -49.56 0.054408 -174.9
6.71083000 0.054636 -105.9 0.997737 -49.59 0.997737 -49.59 0.054896 -174.9
6.71083200 0.055129 -106.0 0.997700 -49.62 0.997700 -49.62 0.055391 -174.8
6.71083400 0.055630 -106.1 0.997662 -49.64 0.997662 -49.64 0.055892 -174.7
6.71083600 0.056136 -106.3 0.997623 -49.67 0.997623 -49.67 0.056400 -174.7
6.71083800 0.056650 -106.4 0.997583 -49.70 0.997583 -49.70 0.056915 -174.6
6.71084000 0.057171 -106.5 0.997542 -49.73 0.997542 -49.73 0.057437 -174.6
6.71084200 0.057699 -106.6 0.997501 -49.77 0.997501 -49.77 0.057966 -174.5
6.71084400 0.058234 -106.7 0.997458 -49.80 0.997458 -49.80 0.058502 -174.5
6.71084600 0.058777 -106.9 0.997415 -49.83 0.997415 -49.83 0.059046 -174.4
6.71084800 0.059327 -107.0 0.997371 -49.86 0.997371 -49.86 0.059597 -174.4
6.71085000 0.059885 -107.1 0.997325 -49.89 0.997325 -49.89 0.060157 -174.3
6.71085200 0.060451 -107.2 0.997279 -49.93 0.997279 -49.93 0.060724 -174.3
6.71085400 0.061025 -107.3 0.997231 -49.96 0.997231 -49.96 0.061299 -174.2
6.71085600 0.061607 -107.5 0.997182 -49.99 0.997182 -49.99 0.061882 -174.2
6.71085800 0.062197 -107.6 0.997133 -50.03 0.997133 -50.03 0.062474 -174.1
6.71086000 0.062797 -107.7 0.997082 -50.06 0.997082 -50.06 0.063075 -174.1
6.71086200 0.063405 -107.8 0.997029 -50.10 0.997029 -50.10 0.063684 -174.1
6.71086400 0.064022 -108.0 0.996976 -50.13 0.996976 -50.13 0.064302 -174.0
6.71086600 0.064648 -108.1 0.996921 -50.17 0.996921 -50.17 0.064930 -174.0
6.71086800 0.065283 -108.2 0.996865 -50.21 0.996865 -50.21 0.065567 -173.9
6.71087000 0.065928 -108.3 0.996807 -50.24 0.996807 -50.24 0.066213 -173.9
6.71087200 0.066583 -108.5 0.996749 -50.28 0.996749 -50.28 0.066870 -173.9
6.71087400 0.067248 -108.6 0.996688 -50.32 0.996688 -50.32 0.067536 -173.8
6.71087600 0.067923 -108.7 0.996626 -50.36 0.996626 -50.36 0.068213 -173.8
6.71087800 0.068609 -108.8 0.996563 -50.40 0.996563 -50.40 0.068900 -173.7
6.71088000 0.069305 -108.9 0.996498 -50.44 0.996498 -50.44 0.069598 -173.7
6.71088200 0.070012 -109.1 0.996431 -50.48 0.996431 -50.48 0.070307 -173.7
6.71088400 0.070731 -109.2 0.996363 -50.52 0.996363 -50.52 0.071027 -173.6
6.71088600 0.071461 -109.3 0.996293 -50.56 0.996293 -50.56 0.071758 -173.6
6.71088800 0.072203 -109.4 0.996221 -50.61 0.996221 -50.61 0.072502 -173.6
6.71089000 0.072956 -109.6 0.996147 -50.65 0.996147 -50.65 0.073257 -173.6
6.71089200 0.073722 -109.7 0.996071 -50.70 0.996071 -50.70 0.074025 -173.5
6.71089400 0.074501 -109.8 0.995994 -50.74 0.995994 -50.74 0.074805 -173.5
6.71089600 0.075293 -110.0 0.995914 -50.79 0.995914 -50.79 0.075599 -173.5
6.71089800 0.076097 -110.1 0.995832 -50.83 0.995832 -50.83 0.076405 -173.5
6.71090000 0.076916 -110.2 0.995747 -50.88 0.995747 -50.88 0.077226 -173.4
6.71090200 0.077748 -110.3 0.995661 -50.93 0.995661 -50.93 0.078060 -173.4
6.71090400 0.078595 -110.5 0.995572 -50.98 0.995572 -50.98 0.078908 -173.4
6.71090600 0.079456 -110.6 0.995480 -51.03 0.995480 -51.03 0.079771 -173.4
6.71090800 0.080332 -110.7 0.995386 -51.08 0.995386 -51.08 0.080649 -173.4
6.71091000 0.081223 -110.9 0.995290 -51.13 0.995290 -51.13 0.081543 -173.3
6.71091200 0.082131 -111.0 0.995190 -51.18 0.995190 -51.18 0.082452 -173.3
6.71091400 0.083054 -111.1 0.995088 -51.24 0.995088 -51.24 0.083378 -173.3
6.71091600 0.083994 -111.3 0.994983 -51.29 0.994983 -51.29 0.084320 -173.3
6.71091800 0.084952 -111.4 0.994875 -51.35 0.994875 -51.35 0.085280 -173.3
6.71092000 0.085926 -111.5 0.994763 -51.40 0.994763 -51.40 0.086257 -173.3
6.71092200 0.086919 -111.7 0.994648 -51.46 0.994648 -51.46 0.087252 -173.3
6.71092400 0.087931 -111.8 0.994530 -51.52 0.994530 -51.52 0.088266 -173.3
6.71092600 0.088961 -112.0 0.994408 -51.58 0.994408 -51.58 0.089298 -173.3
6.71092800 0.090011 -112.1 0.994283 -51.64 0.994283 -51.64 0.090351 -173.3
6.71093000 0.091081 -112.2 0.994153 -51.70 0.994153 -51.70 0.091423 -173.3
6.71093200 0.092171 -112.4 0.994020 -51.76 0.994020 -51.76 0.092516 -173.3
6.71093400 0.093283 -112.5 0.993883 -51.83 0.993883 -51.83 0.093631 -173.3
6.71093600 0.094417 -112.7 0.993741 -51.89 0.993741 -51.89 0.094767 -173.3
6.71093800 0.095574 -112.8 0.993594 -51.96 0.993594 -51.96 0.095926 -173.3
6.71094000 0.096753 -113.0 0.993443 -52.03 0.993443 -52.03 0.097109 -173.3
6.71094200 0.097957 -113.1 0.993287 -52.10 0.993287 -52.10 0.098315 -173.3
6.71094400 0.099185 -113.2 0.993126 -52.17 0.993126 -52.17 0.099546 -173.3
6.71094600 0.100438 -113.4 0.992959 -52.24 0.992959 -52.24 0.100802 -173.3
6.71094800 0.101718 -113.5 0.992787 -52.32 0.992787 -52.32 0.102085 -173.3
6.71095000 0.103025 -113.7 0.992610 -52.39 0.992610 -52.39 0.103395 -173.4
6.71095200 0.104359 -113.9 0.992426 -52.47 0.992426 -52.47 0.104732 -173.4
6.71095400 0.105722 -114.0 0.992236 -52.55 0.992236 -52.55 0.106098 -173.4
6.71095600 0.107115 -114.2 0.992039 -52.63 0.992039 -52.63 0.107494 -173.4
6.71095800 0.108538 -114.3 0.991835 -52.71 0.991835 -52.71 0.108921 -173.4
6.71096000 0.109993 -114.5 0.991624 -52.80 0.991624 -52.80 0.110379 -173.5
6.71096200 0.111480 -114.7 0.991406 -52.88 0.991406 -52.88 0.111870 -173.5
6.71096400 0.113002 -114.8 0.991179 -52.97 0.991179 -52.97 0.113395 -173.5
6.71096600 0.114558 -115.0 0.990945 -53.06 0.990945 -53.06 0.114955 -173.6
6.71096800 0.116150 -115.2 0.990701 -53.15 0.990701 -53.15 0.116550 -173.6
6.71097000 0.117779 -115.3 0.990449 -53.25 0.990449 -53.25 0.118184 -173.7
6.71097200 0.119447 -115.5 0.990187 -53.34 0.990187 -53.34 0.119855 -173.7
6.71097400 0.121155 -115.7 0.989915 -53.44 0.989915 -53.44 0.121567 -173.8
6.71097600 0.122904 -115.9 0.989632 -53.54 0.989632 -53.54 0.123321 -173.8
6.71097800 0.124696 -116.0 0.989339 -53.65 0.989339 -53.65 0.125117 -173.9
6.71098000 0.126533 -116.2 0.989033 -53.75 0.989033 -53.75 0.126958 -173.9
6.71098200 0.128415 -116.4 0.988716 -53.86 0.988716 -53.86 0.128845 -174.0
6.71098400 0.130346 -116.6 0.988386 -53.98 0.988386 -53.98 0.130780 -174.0
6.71098600 0.132326 -116.8 0.988042 -54.09 0.988042 -54.09 0.132764 -174.1
6.71098800 0.134357 -117.0 0.987684 -54.21 0.987684 -54.21 0.134801 -174.2
6.71099000 0.136442 -117.2 0.987311 -54.33 0.987311 -54.33 0.136890 -174.3
6.71099200 0.138582 -117.4 0.986922 -54.45 0.986922 -54.45 0.139036 -174.3
6.71099400 0.140781 -117.6 0.986516 -54.58 0.986516 -54.58 0.141239 -174.4
6.71099600 0.143039 -117.8 0.986093 -54.71 0.986093 -54.71 0.143503 -174.5
6.71099800 0.145360 -118.0 0.985651 -54.85 0.985651 -54.85 0.145830 -174.6
6.71100000 0.147746 -118.2 0.985189 -54.99 0.985189 -54.99 0.148221 -174.7
6.71100200 0.150200 -118.4 0.984706 -55.13 0.984706 -55.13 0.150681 -174.8
6.71100400 0.152724 -118.7 0.984201 -55.27 0.984201 -55.27 0.153211 -174.9
6.71100600 0.155322 -118.9 0.983673 -55.43 0.983673 -55.43 0.155816 -175.0
6.71100800 0.157998 -119.1 0.983119 -55.58 0.983119 -55.58 0.158497 -175.1
6.71101000 0.160753 -119.4 0.982539 -55.74 0.982539 -55.74 0.161259 -175.2
6.71101200 0.163592 -119.6 0.981931 -55.91 0.981931 -55.91 0.164105 -175.4
6.71101400 0.166519 -119.9 0.981293 -56.08 0.981293 -56.08 0.167039 -175.5
6.71101600 0.169538 -120.1 0.980623 -56.25 0.980623 -56.25 0.170065 -175.7
6.71101800 0.172652 -120.4 0.979919 -56.43 0.979919 -56.43 0.173186 -175.8
6.71102000 0.175867 -120.7 0.979178 -56.62 0.979178 -56.62 0.176409 -176.0
6.71102200 0.179187 -120.9 0.978399 -56.82 0.978399 -56.82 0.179737 -176.1
6.71102400 0.182617 -121.2 0.977579 -57.02 0.977579 -57.02 0.183175 -176.3
6.71102600 0.186163 -121.5 0.976714 -57.22 0.976714 -57.22 0.186729 -176.5
6.71102800 0.189830 -121.8 0.975801 -57.44 0.975801 -57.44 0.190405 -176.6
6.71103000 0.193625 -122.1 0.974838 -57.66 0.974838 -57.66 0.194209 -176.8
6.71103200 0.197554 -122.4 0.973820 -57.89 0.973820 -57.89 0.198147 -177.0
6.71103400 0.201624 -122.8 0.972743 -58.13 0.972743 -58.13 0.202227 -177.3
6.71103600 0.205842 -123.1 0.971604 -58.37 0.971604 -58.37 0.206455 -177.5
6.71103800 0.210216 -123.5 0.970396 -58.63 0.970396 -58.63 0.210840 -177.7
6.71104000 0.214756 -123.8 0.969115 -58.90 0.969115 -58.90 0.215390 -178.0
6.71104200 0.219469 -124.2 0.967754 -59.17 0.967754 -59.17 0.220115 -178.2
6.71104400 0.224366 -124.6 0.966309 -59.46 0.966309 -59.46 0.225023 -178.5
6.71104600 0.229456 -125.0 0.964770 -59.76 0.964770 -59.76 0.230126 -178.8
6.71104800 0.234752 -125.4 0.963131 -60.07 0.963131 -60.07 0.235434 -179.1
6.71105000 0.240265 -125.8 0.961383 -60.40 0.961383 -60.40 0.240960 -179.4
6.71105200 0.246008 -126.2 0.959516 -60.74 0.959516 -60.74 0.246716 -179.7
6.71105400 0.251994 -126.7 0.957520 -61.09 0.957520 -61.09 0.252717 179.91
6.71105600 0.258239 -127.2 0.955383 -61.46 0.955383 -61.46 0.258977 179.54
6.71105800 0.264758 -127.7 0.953093 -61.85 0.953093 -61.85 0.265512 179.15
6.71106000 0.271569 -128.2 0.950634 -62.25 0.950634 -62.25 0.272339 178.74
6.71106200 0.278691 -128.7 0.947990 -62.68 0.947990 -62.68 0.279477 178.31
6.71106400 0.286142 -129.3 0.945144 -63.12 0.945144 -63.12 0.286946 177.85
6.71106600 0.293945 -129.9 0.942075 -63.59 0.942075 -63.59 0.294768 177.37
6.71106800 0.302123 -130.5 0.938761 -64.08 0.938761 -64.08 0.302965 176.86
6.71107000 0.310700 -131.1 0.935176 -64.59 0.935176 -64.59 0.311562 176.32
6.71107200 0.319703 -131.8 0.931291 -65.14 0.931291 -65.14 0.320588 175.74
6.71107400 0.329162 -132.5 0.927073 -65.71 0.927073 -65.71 0.330069 175.14
6.71107600 0.339108 -133.3 0.922487 -66.31 0.922487 -66.31 0.340038 174.49
6.71107800 0.349573 -134.1 0.917491 -66.95 0.917491 -66.95 0.350528 173.81
6.71108000 0.360593 -134.9 0.912038 -67.62 0.912038 -67.62 0.361574 173.08
6.71108200 0.372207 -135.8 0.906073 -68.33 0.906073 -68.33 0.373216 172.30
6.71108400 0.384455 -136.7 0.899537 -69.09 0.899537 -69.09 0.385493 171.48
6.71108600 0.397380 -137.7 0.892359 -69.89 0.892359 -69.89 0.398448 170.59
6.71108800 0.411027 -138.7 0.884461 -70.74 0.884461 -70.74 0.412127 169.65
6.71109000 0.425442 -139.8 0.875751 -71.64 0.875751 -71.64 0.426577 168.64
6.71109200 0.440675 -141.0 0.866127 -72.60 0.866127 -72.60 0.441846 167.56
6.71109400 0.456775 -142.3 0.855469 -73.63 0.855469 -73.63 0.457983 166.39
6.71109600 0.473789 -143.6 0.843643 -74.72 0.843643 -74.72 0.475037 165.15
6.71109800 0.491764 -145.1 0.830494 -75.88 0.830494 -75.88 0.493054 163.81
6.71110000 0.517544 -147.2 0.810393 -77.57 0.810393 -77.57 0.518895 161.84
!< P1 F=6.7111 Eeff=(5.67090041 -5.1698e-6) Z0=(51.613141 2.3525e-5) R=0.00720367 C=0.00301518 
!< P2 F=6.7111 Eeff=(5.67090041 -5.1698e-6) Z0=(51.613141 2.3525e-5) R=0.00720367 C=0.00301518 
6.71110050 0.522514 -147.6 0.806343 -77.90 0.806343 -77.90 0.523876 161.45
6.71110100 0.527547 -148.0 0.802181 -78.23 0.802181 -78.23 0.528922 161.06
6.71110150 0.532646 -148.4 0.797902 -78.57 0.797902 -78.57 0.534032 160.66
6.71110200 0.537811 -148.9 0.793503 -78.91 0.793503 -78.91 0.539209 160.25
6.71110250 0.543042 -149.3 0.788980 -79.26 0.788980 -79.26 0.544452 159.83
6.71110300 0.548338 -149.8 0.784330 -79.62 0.784330 -79.62 0.549761 159.41
6.71110350 0.553700 -150.2 0.779547 -79.98 0.779547 -79.98 0.555136 158.97
6.71110400 0.559129 -150.7 0.774629 -80.35 0.774629 -80.35 0.560577 158.53
6.71110450 0.564623 -151.1 0.769571 -80.72 0.769571 -80.72 0.566083 158.08
6.71110500 0.570182 -151.6 0.764369 -81.10 0.764369 -81.10 0.571656 157.63
6.71110550 0.575807 -152.1 0.759017 -81.48 0.759017 -81.48 0.577294 157.16
6.71110600 0.581496 -152.6 0.753513 -81.87 0.753513 -81.87 0.582996 156.68
6.71110650 0.587250 -153.1 0.747851 -82.27 0.747851 -82.27 0.588763 156.20
6.71110700 0.593066 -153.6 0.742027 -82.67 0.742027 -82.67 0.594593 155.71
6.71110750 0.598945 -154.2 0.736035 -83.07 0.736035 -83.07 0.600486 155.20
6.71110800 0.604886 -154.7 0.729871 -83.49 0.729871 -83.49 0.606440 154.69
6.71110850 0.610886 -155.3 0.723531 -83.91 0.723531 -83.91 0.612454 154.16
6.71110900 0.616945 -155.8 0.717008 -84.33 0.717008 -84.33 0.618527 153.63
6.71110950 0.623062 -156.4 0.710298 -84.76 0.710298 -84.76 0.624658 153.09
6.71111000 0.629233 -157.0 0.703396 -85.20 0.703396 -85.20 0.630844 152.53
6.71111050 0.635458 -157.6 0.696297 -85.64 0.696297 -85.64 0.637083 151.97
6.71111100 0.641734 -158.2 0.688995 -86.09 0.688995 -86.09 0.643374 151.39
6.71111150 0.648059 -158.8 0.681485 -86.54 0.681485 -86.54 0.649713 150.80
6.71111200 0.654430 -159.4 0.673763 -87.00 0.673763 -87.00 0.656098 150.20
6.71111250 0.660843 -160.0 0.665822 -87.46 0.665822 -87.46 0.662526 149.59
6.71111300 0.667297 -160.7 0.657657 -87.93 0.657657 -87.93 0.668994 148.97
6.71111350 0.673786 -161.3 0.649264 -88.40 0.649264 -88.40 0.675498 148.34
6.71111400 0.680307 -162.0 0.640637 -88.88 0.640637 -88.88 0.682035 147.69
6.71111450 0.686857 -162.7 0.631771 -89.36 0.631771 -89.36 0.688599 147.04
6.71111500 0.693430 -163.4 0.622662 -89.84 0.622662 -89.84 0.695187 146.37
6.71111550 0.700021 -164.1 0.613305 -90.32 0.613305 -90.32 0.701794 145.68
6.71111600 0.706626 -164.8 0.603695 -90.81 0.603695 -90.81 0.708413 144.99
6.71111650 0.713239 -165.5 0.593829 -91.30 0.593829 -91.30 0.715041 144.28
6.71111700 0.719853 -166.3 0.583701 -91.79 0.583701 -91.79 0.721671 143.56
6.71111750 0.726463 -167.0 0.573310 -92.28 0.573310 -92.28 0.728295 142.83
6.71111800 0.733062 -167.8 0.562650 -92.77 0.562650 -92.77 0.734909 142.08
6.71111850 0.739643 -168.6 0.551720 -93.25 0.551720 -93.25 0.741504 141.32
6.71111900 0.746197 -169.4 0.540517 -93.73 0.540517 -93.73 0.748073 140.55
6.71111950 0.752718 -170.2 0.529040 -94.21 0.529040 -94.21 0.754609 139.77
6.71112000 0.759196 -171.0 0.517287 -94.68 0.517287 -94.68 0.761102 138.97
6.71112050 0.765624 -171.8 0.505258 -95.14 0.505258 -95.14 0.767544 138.16
6.71112100 0.771992 -172.7 0.492952 -95.59 0.492952 -95.59 0.773926 137.33
6.71112150 0.778291 -173.5 0.480372 -96.03 0.480372 -96.03 0.780239 136.49
6.71112200 0.784511 -174.4 0.467519 -96.45 0.467519 -96.45 0.786473 135.64
6.71112250 0.790642 -175.3 0.454396 -96.85 0.454396 -96.85 0.792617 134.78
6.71112300 0.796674 -176.2 0.441008 -97.23 0.441008 -97.23 0.798662 133.90
6.71112350 0.802596 -177.1 0.427361 -97.58 0.427361 -97.58 0.804596 133.02
6.71112400 0.808396 -178.0 0.413461 -97.90 0.413461 -97.90 0.810409 132.11
6.71112450 0.814065 -179.0 0.399318 -98.18 0.399318 -98.18 0.816090 131.20
6.71112500 0.819590 -179.9 0.384942 -98.42 0.384942 -98.42 0.821627 130.28
6.71112550 0.824961 179.12 0.370345 -98.60 0.370345 -98.60 0.827010 129.34
6.71112600 0.830166 178.15 0.355545 -98.73 0.355545 -98.73 0.832226 128.39
6.71112650 0.835194 177.16 0.340557 -98.78 0.340557 -98.78 0.837264 127.43
6.71112700 0.840033 176.17 0.325405 -98.74 0.325405 -98.74 0.842113 126.46
6.71112750 0.844672 175.17 0.310112 -98.60 0.310112 -98.60 0.846761 125.48
6.71112800 0.849100 174.16 0.294711 -98.35 0.294711 -98.35 0.851198 124.49
6.71112850 0.853306 173.13 0.279236 -97.95 0.279236 -97.95 0.855413 123.50
6.71112900 0.857280 172.10 0.263730 -97.37 0.263730 -97.37 0.859394 122.49
6.71112950 0.861011 171.06 0.248246 -96.60 0.248246 -96.60 0.863133 121.47
6.71113000 0.864491 170.02 0.232848 -95.58 0.232848 -95.58 0.866619 120.45
6.71113050 0.867709 168.96 0.217615 -94.26 0.217615 -94.26 0.869843 119.42
6.71113100 0.870658 167.90 0.202645 -92.57 0.202645 -92.57 0.872796 118.38
6.71113150 0.873328 166.84 0.188062 -90.45 0.188062 -90.45 0.875472 117.34
6.71113200 0.875714 165.77 0.174025 -87.79 0.174025 -87.79 0.877862 116.29
6.71113250 0.877809 164.69 0.160735 -84.48 0.160735 -84.48 0.879960 115.24
6.71113300 0.879607 163.62 0.148450 -80.40 0.148450 -80.40 0.881760 114.18
6.71113350 0.881104 162.53 0.137491 -75.43 0.137491 -75.43 0.883258 113.12
6.71113400 0.882295 161.45 0.128243 -69.50 0.128243 -69.50 0.884450 112.06
6.71113450 0.883179 160.36 0.121134 -62.60 0.121134 -62.60 0.885334 111.00
6.71113500 0.883752 159.28 0.116583 -54.90 0.116583 -54.90 0.885906 109.94
6.71113550 0.884017 158.19 0.114903 -46.72 0.114903 -46.72 0.886170 108.87
!< P1 F=6.7111355 Eeff=(5.67090057 -5.1686e-6) Z0=(51.6131419 2.3525e-5) R=0.00720003 C=0.00301518 
!< P2 F=6.7111355 Eeff=(5.67090057 -5.1686e-6) Z0=(51.6131419 2.3525e-5) R=0.00720003 C=0.00301518 
6.71113600 0.883965 157.10 0.116233 -38.50 0.116233 -38.50 0.886116 107.81
6.71113650 0.883605 156.02 0.120462 -30.72 0.120462 -30.72 0.885752 106.75
6.71113700 0.882935 154.93 0.127279 -23.73 0.127279 -23.73 0.885080 105.69
6.71113750 0.881960 153.85 0.136266 -17.69 0.136266 -17.69 0.884100 104.63
6.71113800 0.880682 152.78 0.146986 -12.64 0.146986 -12.64 0.882817 103.57
6.71113850 0.879107 151.70 0.159046 -8.474 0.159046 -8.474 0.881236 102.52
6.71113900 0.877240 150.64 0.172116 -5.094 0.172116 -5.094 0.879363 101.48
6.71113950 0.875088 149.57 0.185932 -2.371 0.185932 -2.371 0.877203 100.44
6.71114000 0.872658 148.52 0.200289 -0.193 0.200289 -0.193 0.874765 99.407
6.71114050 0.869958 147.47 0.215024 1.5370 0.215024 1.5370 0.872057 98.382
6.71114100 0.866997 146.43 0.230012 2.8988 0.230012 2.8988 0.869086 97.364
6.71114150 0.863783 145.40 0.245154 3.9581 0.245154 3.9581 0.865862 96.355