! Sonnet Data File
! From: em Version : 14.52
! From Project: w4
! Data is De-embedded 
! Data File Written: 07/15/2018 07:49:11
!< HDATE 07/13/2018 23:57:20
!< MDATE 07/15/2018 00:08:50
# GHZ S MA R 50.00000
6.15000000 0.056379 47.380 0.998409 -41.66 0.998409 -41.66 0.056379 49.292
!< P1 F=6.15 Eeff=(5.67096757 -5.1692e-6) Z0=(55.5336863 2.53128e-5) R=0.00807017 C=0.00293549 
!< P2 F=6.15 Eeff=(5.67096757 -5.1692e-6) Z0=(55.5336863 2.53128e-5) R=0.00807017 C=0.00293549 
6.15500000 0.056411 47.342 0.998407 -41.70 0.998407 -41.70 0.056410 49.262
6.16000000 0.056442 47.303 0.998405 -41.73 0.998405 -41.73 0.056441 49.232
6.16500000 0.056473 47.265 0.998403 -41.77 0.998403 -41.77 0.056472 49.202
6.17000000 0.056504 47.226 0.998401 -41.80 0.998401 -41.80 0.056503 49.172
6.17500000 0.056535 47.187 0.998399 -41.84 0.998399 -41.84 0.056533 49.142
6.18000000 0.056566 47.148 0.998397 -41.87 0.998397 -41.87 0.056563 49.112
6.18500000 0.056596 47.109 0.998396 -41.90 0.998396 -41.90 0.056593 49.083
6.19000000 0.056626 47.069 0.998394 -41.94 0.998394 -41.94 0.056623 49.053
6.19500000 0.056656 47.030 0.998392 -41.97 0.998392 -41.97 0.056653 49.024
6.20000000 0.056685 46.990 0.998390 -42.01 0.998390 -42.01 0.056682 48.995
6.20500000 0.056714 46.950 0.998388 -42.04 0.998388 -42.04 0.056711 48.966
6.21000000 0.056743 46.910 0.998387 -42.08 0.998387 -42.08 0.056740 48.937
6.21500000 0.056772 46.870 0.998385 -42.11 0.998385 -42.11 0.056768 48.909
6.22000000 0.056800 46.829 0.998383 -42.14 0.998383 -42.14 0.056796 48.881
6.22500000 0.056828 46.788 0.998382 -42.18 0.998382 -42.18 0.056824 48.852
6.23000000 0.056855 46.747 0.998380 -42.21 0.998380 -42.21 0.056851 48.824
6.23500000 0.056882 46.706 0.998378 -42.25 0.998378 -42.25 0.056878 48.797
6.24000000 0.056909 46.664 0.998377 -42.28 0.998377 -42.28 0.056905 48.769
6.24500000 0.056935 46.623 0.998375 -42.32 0.998375 -42.32 0.056931 48.742
6.25000000 0.056961 46.580 0.998374 -42.35 0.998374 -42.35 0.056957 48.715
6.25500000 0.056986 46.538 0.998372 -42.39 0.998372 -42.39 0.056982 48.688
6.26000000 0.057011 46.495 0.998371 -42.42 0.998371 -42.42 0.057007 48.662
6.26500000 0.057036 46.452 0.998370 -42.46 0.998370 -42.46 0.057031 48.636
6.27000000 0.057059 46.408 0.998368 -42.49 0.998368 -42.49 0.057055 48.610
6.27500000 0.057082 46.364 0.998367 -42.53 0.998367 -42.53 0.057078 48.585
6.28000000 0.057105 46.319 0.998366 -42.56 0.998366 -42.56 0.057100 48.560
6.28500000 0.057126 46.274 0.998364 -42.60 0.998364 -42.60 0.057122 48.535
6.29000000 0.057147 46.228 0.998363 -42.63 0.998363 -42.63 0.057143 48.511
6.29500000 0.057168 46.182 0.998362 -42.66 0.998362 -42.66 0.057163 48.488
6.30000000 0.057187 46.135 0.998361 -42.70 0.998361 -42.70 0.057183 48.464
6.30500000 0.057205 46.087 0.998360 -42.73 0.998360 -42.73 0.057201 48.442
6.31000000 0.057223 46.039 0.998359 -42.77 0.998359 -42.77 0.057219 48.420
6.31500000 0.057239 45.990 0.998358 -42.81 0.998358 -42.81 0.057235 48.399
6.32000000 0.057254 45.940 0.998357 -42.84 0.998357 -42.84 0.057250 48.378
6.32500000 0.057268 45.889 0.998357 -42.88 0.998357 -42.88 0.057264 48.358
6.33000000 0.057281 45.837 0.998356 -42.91 0.998356 -42.91 0.057277 48.339
6.33500000 0.057292 45.784 0.998355 -42.95 0.998355 -42.95 0.057288 48.321
6.34000000 0.057301 45.730 0.998355 -42.98 0.998355 -42.98 0.057298 48.304
6.34500000 0.057309 45.674 0.998354 -43.02 0.998354 -43.02 0.057306 48.288
6.35000000 0.057315 45.617 0.998354 -43.05 0.998354 -43.05 0.057311 48.274
6.35500000 0.057318 45.558 0.998354 -43.09 0.998354 -43.09 0.057315 48.260
6.36000000 0.057319 45.497 0.998354 -43.13 0.998354 -43.13 0.057316 48.248
6.36500000 0.057318 45.434 0.998354 -43.16 0.998354 -43.16 0.057315 48.238
6.37000000 0.057313 45.369 0.998354 -43.20 0.998354 -43.20 0.057311 48.230
6.37500000 0.057305 45.302 0.998355 -43.24 0.998355 -43.24 0.057303 48.224
6.38000000 0.057294 45.231 0.998356 -43.27 0.998356 -43.27 0.057291 48.220
6.38500000 0.057278 45.157 0.998357 -43.31 0.998357 -43.31 0.057275 48.220
6.39000000 0.057257 45.079 0.998358 -43.35 0.998358 -43.35 0.057255 48.222
6.39500000 0.057230 44.997 0.998360 -43.39 0.998360 -43.39 0.057228 48.228
6.40000000 0.057197 44.909 0.998362 -43.43 0.998362 -43.43 0.057195 48.238
6.40500000 0.057157 44.816 0.998364 -43.47 0.998364 -43.47 0.057155 48.253
6.41000000 0.057107 44.715 0.998367 -43.51 0.998367 -43.51 0.057106 48.274
6.41500000 0.057047 44.606 0.998370 -43.55 0.998370 -43.55 0.057046 48.302
6.42000000 0.056975 44.487 0.998375 -43.59 0.998375 -43.59 0.056974 48.338
6.42500000 0.056888 44.356 0.998380 -43.63 0.998380 -43.63 0.056887 48.384
6.43000000 0.056782 44.209 0.998386 -43.67 0.998386 -43.67 0.056781 48.443
6.43500000 0.056653 44.044 0.998393 -43.72 0.998393 -43.72 0.056652 48.518
6.44000000 0.056495 43.854 0.998402 -43.77 0.998402 -43.77 0.056494 48.613
6.44500000 0.056299 43.632 0.998413 -43.82 0.998413 -43.82 0.056299 48.734
6.45000000 0.056054 43.367 0.998427 -43.87 0.998427 -43.87 0.056054 48.891
6.45500000 0.055741 43.044 0.998444 -43.93 0.998444 -43.93 0.055741 49.097
6.46000000 0.055334 42.635 0.998467 -44.00 0.998467 -44.00 0.055334 49.375
6.46500000 0.054787 42.097 0.998497 -44.07 0.998497 -44.07 0.054787 49.761
6.47000000 0.054022 41.349 0.998539 -44.16 0.998539 -44.16 0.054023 50.326
6.47500000 0.052890 40.226 0.998599 -44.28 0.998599 -44.28 0.052891 51.210
6.48000000 0.051067 38.329 0.998693 -44.46 0.998693 -44.46 0.051069 52.762
!< P1 F=6.48 Eeff=(5.67094506 -5.169e-6) Z0=(55.5334429 2.53083e-5) R=0.0076633 C=0.00293546 
!< P2 F=6.48 Eeff=(5.67094506 -5.169e-6) Z0=(55.5334429 2.53083e-5) R=0.0076633 C=0.00293546 
6.48020000 0.050971 38.225 0.998698 -44.47 0.998698 -44.47 0.050973 52.849
6.48040000 0.050872 38.118 0.998703 -44.47 0.998703 -44.47 0.050875 52.938
6.48060000 0.050772 38.008 0.998708 -44.48 0.998708 -44.48 0.050774 53.029
6.48080000 0.050668 37.895 0.998713 -44.49 0.998713 -44.49 0.050671 53.124
6.48100000 0.050562 37.778 0.998718 -44.50 0.998718 -44.50 0.050565 53.222
6.48120000 0.050454 37.658 0.998724 -44.51 0.998724 -44.51 0.050457 53.322
6.48140000 0.050342 37.534 0.998729 -44.52 0.998729 -44.52 0.050346 53.427
6.48160000 0.050228 37.406 0.998735 -44.53 0.998735 -44.53 0.050231 53.534
6.48180000 0.050111 37.274 0.998741 -44.54 0.998741 -44.54 0.050114 53.645
6.48200000 0.049990 37.138 0.998747 -44.55 0.998747 -44.55 0.049994 53.760
6.48220000 0.049867 36.997 0.998753 -44.56 0.998753 -44.56 0.049870 53.879
6.48240000 0.049739 36.851 0.998759 -44.58 0.998759 -44.58 0.049743 54.002
6.48260000 0.049609 36.700 0.998766 -44.59 0.998766 -44.59 0.049613 54.130
6.48280000 0.049474 36.545 0.998772 -44.60 0.998772 -44.60 0.049478 54.262
6.48300000 0.049336 36.383 0.998779 -44.61 0.998779 -44.61 0.049340 54.399
6.48320000 0.049194 36.216 0.998786 -44.62 0.998786 -44.62 0.049198 54.541
6.48340000 0.049048 36.042 0.998793 -44.64 0.998793 -44.64 0.049052 54.689
6.48360000 0.048897 35.862 0.998800 -44.65 0.998800 -44.65 0.048901 54.843
6.48380000 0.048742 35.675 0.998808 -44.66 0.998808 -44.66 0.048746 55.003
6.48400000 0.048582 35.481 0.998815 -44.68 0.998815 -44.68 0.048587 55.169
6.48420000 0.048417 35.279 0.998823 -44.69 0.998823 -44.69 0.048422 55.342
6.48440000 0.048247 35.068 0.998831 -44.71 0.998831 -44.71 0.048252 55.523
6.48460000 0.048071 34.849 0.998840 -44.72 0.998840 -44.72 0.048077 55.711
6.48480000 0.047890 34.621 0.998848 -44.74 0.998848 -44.74 0.047896 55.908
6.48500000 0.047703 34.382 0.998857 -44.76 0.998857 -44.76 0.047709 56.114
6.48520000 0.047510 34.133 0.998866 -44.77 0.998866 -44.77 0.047516 56.329
6.48540000 0.047310 33.873 0.998875 -44.79 0.998875 -44.79 0.047316 56.554
6.48560000 0.047104 33.601 0.998885 -44.81 0.998885 -44.81 0.047110 56.790
6.48580000 0.046890 33.315 0.998895 -44.83 0.998895 -44.83 0.046897 57.038
6.48600000 0.046669 33.016 0.998905 -44.85 0.998905 -44.85 0.046676 57.298
6.48620000 0.046440 32.702 0.998916 -44.87 0.998916 -44.87 0.046447 57.572
6.48640000 0.046203 32.372 0.998926 -44.89 0.998926 -44.89 0.046211 57.860
6.48660000 0.045957 32.024 0.998937 -44.91 0.998937 -44.91 0.045965 58.164
6.48680000 0.045702 31.658 0.998949 -44.93 0.998949 -44.93 0.045711 58.485
6.48700000 0.045438 31.272 0.998961 -44.96 0.998961 -44.96 0.045446 58.824
6.48720000 0.045163 30.863 0.998973 -44.98 0.998973 -44.98 0.045172 59.183
6.48740000 0.044878 30.431 0.998985 -45.01 0.998985 -45.01 0.044888 59.564
6.48760000 0.044581 29.973 0.998998 -45.04 0.998998 -45.04 0.044592 59.968
6.48780000 0.044273 29.486 0.999012 -45.06 0.999012 -45.06 0.044284 60.398
6.48800000 0.043953 28.969 0.999025 -45.09 0.999025 -45.09 0.043965 60.857
6.48820000 0.043620 28.417 0.999040 -45.12 0.999040 -45.12 0.043632 61.347
6.48840000 0.043273 27.829 0.999054 -45.16 0.999054 -45.16 0.043286 61.871
6.48860000 0.042912 27.199 0.999069 -45.19 0.999069 -45.19 0.042926 62.433
6.48880000 0.042536 26.523 0.999085 -45.23 0.999085 -45.23 0.042551 63.037
6.48900000 0.042145 25.797 0.999101 -45.27 0.999101 -45.27 0.042161 63.687
6.48920000 0.041737 25.014 0.999118 -45.31 0.999118 -45.31 0.041754 64.390
6.48940000 0.041313 24.169 0.999135 -45.35 0.999135 -45.35 0.041331 65.151
6.48960000 0.040871 23.253 0.999152 -45.39 0.999152 -45.39 0.040890 65.977
6.48980000 0.040411 22.258 0.999170 -45.44 0.999170 -45.44 0.040432 66.876
6.49000000 0.039933 21.174 0.999188 -45.49 0.999188 -45.49 0.039956 67.859
6.49020000 0.039437 19.989 0.999207 -45.55 0.999207 -45.55 0.039462 68.937
6.49040000 0.038924 18.688 0.999226 -45.61 0.999226 -45.61 0.038950 70.122
6.49060000 0.038393 17.255 0.999245 -45.67 0.999245 -45.67 0.038422 71.431
6.49080000 0.037848 15.672 0.999265 -45.74 0.999265 -45.74 0.037879 72.881
6.49100000 0.037289 13.915 0.999284 -45.81 0.999284 -45.81 0.037323 74.494
6.49120000 0.036721 11.957 0.999304 -45.89 0.999304 -45.89 0.036759 76.296
6.49140000 0.036151 9.7669 0.999323 -45.97 0.999323 -45.97 0.036193 78.317
6.49160000 0.035587 7.3068 0.999341 -46.06 0.999341 -46.06 0.035633 80.592
6.49180000 0.035041 4.5332 0.999358 -46.16 0.999358 -46.16 0.035093 83.163
6.49200000 0.034532 1.3960 0.999373 -46.28 0.999373 -46.28 0.034590 86.077
6.49220000 0.034085 -2.161 0.999385 -46.40 0.999385 -46.40 0.034149 89.386
6.49240000 0.033735 -6.197 0.999393 -46.53 0.999393 -46.53 0.033808 93.146
6.49260000 0.033532 -10.77 0.999395 -46.68 0.999395 -46.68 0.033614 97.412
6.49280000 0.033544 -15.94 0.999389 -46.85 0.999389 -46.85 0.033637 102.23
6.49300000 0.033863 -21.73 0.999372 -47.04 0.999372 -47.04 0.033967 107.62
6.49320000 0.034610 -28.14 0.999339 -47.26 0.999339 -47.26 0.034726 113.57
6.49340000 0.035941 -35.10 0.999282 -47.51 0.999282 -47.51 0.036070 120.00
6.49360000 0.038054 -42.49 0.999192 -47.80 0.999192 -47.80 0.038196 126.77
6.49380000 0.041196 -50.12 0.999052 -48.14 0.999052 -48.14 0.041352 133.68
6.49400000 0.045677 -57.78 0.998837 -48.55 0.998837 -48.55 0.045847 140.49
6.49420000 0.051903 -65.27 0.998506 -49.05 0.998506 -49.05 0.052086 146.95
6.49440000 0.060434 -72.45 0.997989 -49.66 0.997989 -49.66 0.060631 152.85
6.49460000 0.072107 -79.24 0.997160 -50.44 0.997160 -50.44 0.072320 158.04
6.49480000 0.088265 -85.68 0.995779 -51.46 0.995779 -51.46 0.088498 162.38
6.49500000 0.111234 -91.92 0.993346 -52.87 0.993346 -52.87 0.111494 165.75
6.49520000 0.145617 -98.28 0.988661 -54.93 0.988661 -54.93 0.145917 167.91
!< P1 F=6.4952 Eeff=(5.67094354 -5.1685e-6) Z0=(55.5334327 2.53128e-5) R=0.0076414 C=0.00293546 
!< P2 F=6.4952 Eeff=(5.67094354 -5.1685e-6) Z0=(55.5334327 2.53128e-5) R=0.0076414 C=0.00293546 
6.49520500 0.146680 -98.45 0.988497 -55.00 0.988497 -55.00 0.146981 167.94
6.49521000 0.147754 -98.61 0.988329 -55.06 0.988329 -55.06 0.148057 167.98
6.49521500 0.148842 -98.77 0.988158 -55.13 0.988158 -55.13 0.149145 168.01
6.49522000 0.149942 -98.94 0.987983 -55.19 0.987983 -55.19 0.150247 168.04
6.49522500 0.151055 -99.10 0.987805 -55.26 0.987805 -55.26 0.151361 168.07
6.49523000 0.152182 -99.27 0.987624 -55.33 0.987624 -55.33 0.152489 168.10
6.49523500 0.153322 -99.44 0.987439 -55.39 0.987439 -55.39 0.153631 168.13
6.49524000 0.154476 -99.60 0.987251 -55.46 0.987251 -55.46 0.154786 168.16
6.49524500 0.155644 -99.77 0.987058 -55.53 0.987058 -55.53 0.155955 168.18
6.49525000 0.156826 -99.94 0.986862 -55.60 0.986862 -55.60 0.157138 168.21
6.49525500 0.158022 -100.1 0.986662 -55.67 0.986662 -55.67 0.158336 168.23
6.49526000 0.159233 -100.3 0.986458 -55.74 0.986458 -55.74 0.159549 168.25
6.49526500 0.160460 -100.4 0.986250 -55.82 0.986250 -55.82 0.160776 168.28
6.49527000 0.161701 -100.6 0.986037 -55.89 0.986037 -55.89 0.162019 168.30
6.49527500 0.162958 -100.8 0.985820 -55.97 0.985820 -55.97 0.163277 168.32
6.49528000 0.164230 -101.0 0.985599 -56.04 0.985599 -56.04 0.164551 168.33
6.49528500 0.165519 -101.1 0.985373 -56.12 0.985373 -56.12 0.165841 168.35
6.49529000 0.166824 -101.3 0.985143 -56.20 0.985143 -56.20 0.167148 168.36
6.49529500 0.168146 -101.5 0.984907 -56.27 0.984907 -56.27 0.168471 168.38
6.49530000 0.169484 -101.7 0.984667 -56.35 0.984667 -56.35 0.169811 168.39
6.49530500 0.170840 -101.8 0.984422 -56.43 0.984422 -56.43 0.171168 168.40
6.49531000 0.172213 -102.0 0.984171 -56.52 0.984171 -56.52 0.172543 168.41
6.49531500 0.173604 -102.2 0.983915 -56.60 0.983915 -56.60 0.173936 168.42
6.49532000 0.175014 -102.4 0.983654 -56.68 0.983654 -56.68 0.175347 168.43
6.49532500 0.176441 -102.5 0.983387 -56.77 0.983387 -56.77 0.176776 168.43
6.49533000 0.177888 -102.7 0.983114 -56.85 0.983114 -56.85 0.178225 168.44
6.49533500 0.179354 -102.9 0.982835 -56.94 0.982835 -56.94 0.179692 168.44
6.49534000 0.180840 -103.1 0.982550 -57.03 0.982550 -57.03 0.181180 168.44
6.49534500 0.182345 -103.3 0.982259 -57.12 0.982259 -57.12 0.182687 168.44
6.49535000 0.183871 -103.4 0.981961 -57.21 0.981961 -57.21 0.184215 168.44
6.49535500 0.185418 -103.6 0.981657 -57.30 0.981657 -57.30 0.185763 168.44
6.49536000 0.186986 -103.8 0.981346 -57.39 0.981346 -57.39 0.187333 168.43
6.49536500 0.188575 -104.0 0.981027 -57.49 0.981027 -57.49 0.188924 168.42
6.49537000 0.190187 -104.2 0.980702 -57.58 0.980702 -57.58 0.190537 168.42
6.49537500 0.191821 -104.4 0.980369 -57.68 0.980369 -57.68 0.192173 168.41
6.49538000 0.193478 -104.6 0.980028 -57.78 0.980028 -57.78 0.193832 168.40
6.49538500 0.195158 -104.7 0.979680 -57.88 0.979680 -57.88 0.195514 168.38
6.49539000 0.196861 -104.9 0.979324 -57.98 0.979324 -57.98 0.197220 168.37
6.49539500 0.198590 -105.1 0.978959 -58.08 0.978959 -58.08 0.198950 168.35
6.49540000 0.200342 -105.3 0.978585 -58.19 0.978585 -58.19 0.200705 168.33
6.49540500 0.202121 -105.5 0.978203 -58.29 0.978203 -58.29 0.202485 168.31
6.49541000 0.203925 -105.7 0.977811 -58.40 0.977811 -58.40 0.204291 168.29
6.49541500 0.205755 -105.9 0.977411 -58.51 0.977411 -58.51 0.206123 168.27
6.49542000 0.207612 -106.1 0.977000 -58.62 0.977000 -58.62 0.207982 168.24
6.49542500 0.209497 -106.3 0.976579 -58.73 0.976579 -58.73 0.209869 168.21
6.49543000 0.211409 -106.5 0.976149 -58.84 0.976149 -58.84 0.211784 168.18
6.49543500 0.213350 -106.7 0.975707 -58.96 0.975707 -58.96 0.213727 168.15
6.49544000 0.215321 -106.9 0.975255 -59.07 0.975255 -59.07 0.215700 168.12
6.49544500 0.217321 -107.1 0.974791 -59.19 0.974791 -59.19 0.217702 168.08
6.49545000 0.219351 -107.3 0.974316 -59.31 0.974316 -59.31 0.219735 168.04
6.49545500 0.221413 -107.5 0.973829 -59.44 0.973829 -59.44 0.221800 168.00
6.49546000 0.223507 -107.8 0.973329 -59.56 0.973329 -59.56 0.223896 167.96
6.49546500 0.225633 -108.0 0.972817 -59.69 0.972817 -59.69 0.226024 167.92
6.49547000 0.227792 -108.2 0.972291 -59.82 0.972291 -59.82 0.228186 167.87
6.49547500 0.229986 -108.4 0.971752 -59.95 0.971752 -59.95 0.230382 167.82
6.49548000 0.232213 -108.6 0.971198 -60.08 0.971198 -60.08 0.232612 167.77
6.49548500 0.234477 -108.8 0.970630 -60.22 0.970630 -60.22 0.234878 167.71
6.49549000 0.236777 -109.1 0.970047 -60.35 0.970047 -60.35 0.237181 167.66
6.49549500 0.239114 -109.3 0.969449 -60.49 0.969449 -60.49 0.239520 167.60
6.49550000 0.241488 -109.5 0.968834 -60.63 0.968834 -60.63 0.241898 167.53
6.49550500 0.243902 -109.7 0.968203 -60.78 0.968203 -60.78 0.244314 167.47
6.49551000 0.246355 -110.0 0.967554 -60.92 0.967554 -60.92 0.246770 167.40
6.49551500 0.248849 -110.2 0.966888 -61.07 0.966888 -61.07 0.249267 167.33
6.49552000 0.251385 -110.4 0.966203 -61.22 0.966203 -61.22 0.251805 167.26
6.49552500 0.253963 -110.7 0.965500 -61.38 0.965500 -61.38 0.254387 167.18
6.49553000 0.256585 -110.9 0.964776 -61.54 0.964776 -61.54 0.257011 167.10
6.49553500 0.259251 -111.2 0.964032 -61.69 0.964032 -61.69 0.259681 167.02
6.49554000 0.261963 -111.4 0.963267 -61.86 0.963267 -61.86 0.262396 166.94
6.49554500 0.264722 -111.7 0.962480 -62.02 0.962480 -62.02 0.265158 166.85
6.49555000 0.267528 -111.9 0.961671 -62.19 0.961671 -62.19 0.267967 166.76
6.49555500 0.270384 -112.2 0.960837 -62.36 0.960837 -62.36 0.270826 166.66
6.49556000 0.273290 -112.4 0.959980 -62.54 0.959980 -62.54 0.273735 166.56
6.49556500 0.276247 -112.7 0.959096 -62.71 0.959096 -62.71 0.276696 166.46
6.49557000 0.279257 -112.9 0.958187 -62.90 0.958187 -62.90 0.279710 166.35
6.49557500 0.282321 -113.2 0.957250 -63.08 0.957250 -63.08 0.282777 166.24
6.49558000 0.285441 -113.5 0.956286 -63.27 0.956286 -63.27 0.285901 166.13
6.49558500 0.288617 -113.8 0.955291 -63.46 0.955291 -63.46 0.289081 166.01
6.49559000 0.291852 -114.0 0.954266 -63.65 0.954266 -63.65 0.292319 165.89
6.49559500 0.295146 -114.3 0.953210 -63.85 0.953210 -63.85 0.295617 165.77
6.49560000 0.298501 -114.6 0.952120 -64.06 0.952120 -64.06 0.298976 165.64
6.49560500 0.301920 -114.9 0.950996 -64.26 0.950996 -64.26 0.302398 165.50
6.49561000 0.305402 -115.2 0.949837 -64.47 0.949837 -64.47 0.305885 165.37
6.49561500 0.308951 -115.5 0.948640 -64.69 0.948640 -64.69 0.309438 165.22
6.49562000 0.312567 -115.8 0.947405 -64.91 0.947405 -64.91 0.313058 165.08
6.49562500 0.316253 -116.1 0.946130 -65.13 0.946130 -65.13 0.316748 164.92
6.49563000 0.320010 -116.4 0.944813 -65.36 0.944813 -65.36 0.320510 164.77
6.49563500 0.323841 -116.7 0.943452 -65.59 0.943452 -65.59 0.324345 164.60
6.49564000 0.327746 -117.0 0.942047 -65.83 0.942047 -65.83 0.328255 164.44
6.49564500 0.331729 -117.3 0.940594 -66.08 0.940594 -66.08 0.332242 164.26
6.49565000 0.335791 -117.7 0.939091 -66.32 0.939091 -66.32 0.336308 164.08
6.49565500 0.339934 -118.0 0.937538 -66.58 0.937538 -66.58 0.340456 163.90
6.49566000 0.344160 -118.3 0.935931 -66.84 0.935931 -66.84 0.344687 163.71
6.49566500 0.348472 -118.7 0.934268 -67.10 0.934268 -67.10 0.349004 163.51
6.49567000 0.352872 -119.0 0.932547 -67.37 0.932547 -67.37 0.353409 163.31
6.49567500 0.357363 -119.4 0.930765 -67.65 0.930765 -67.65 0.357905 163.10
6.49568000 0.361946 -119.8 0.928920 -67.93 0.928920 -67.93 0.362493 162.89
6.49568500 0.366624 -120.1 0.927009 -68.22 0.927009 -68.22 0.367177 162.67
6.49569000 0.371400 -120.5 0.925028 -68.52 0.925028 -68.52 0.371958 162.44
6.49569500 0.376276 -120.9 0.922975 -68.82 0.922975 -68.82 0.376840 162.20
6.49570000 0.381256 -121.3 0.920846 -69.13 0.920846 -69.13 0.381825 161.96
6.49570500 0.386341 -121.7 0.918638 -69.45 0.918638 -69.45 0.386916 161.71
6.49571000 0.391535 -122.1 0.916347 -69.77 0.916347 -69.77 0.392116 161.45
6.49571500 0.396841 -122.5 0.913969 -70.10 0.913969 -70.10 0.397428 161.18
6.49572000 0.402261 -122.9 0.911501 -70.44 0.911501 -70.44 0.402855 160.90
6.49572500 0.407799 -123.3 0.908937 -70.79 0.908937 -70.79 0.408399 160.62
6.49573000 0.413458 -123.8 0.906274 -71.15 0.906274 -71.15 0.414064 160.33
6.49573500 0.419241 -124.2 0.903507 -71.51 0.903507 -71.51 0.419853 160.02
6.49574000 0.425151 -124.7 0.900630 -71.89 0.900630 -71.89 0.425770 159.71
6.49574500 0.431191 -125.1 0.897639 -72.27 0.897639 -72.27 0.431818 159.39
6.49575000 0.437366 -125.6 0.894527 -72.67 0.894527 -72.67 0.437999 159.06
6.49575500 0.443677 -126.1 0.891289 -73.07 0.891289 -73.07 0.444318 158.71
6.49576000 0.450130 -126.6 0.887919 -73.49 0.887919 -73.49 0.450778 158.36
6.49576500 0.456727 -127.1 0.884410 -73.91 0.884410 -73.91 0.457382 157.99
6.49577000 0.463471 -127.6 0.880755 -74.35 0.880755 -74.35 0.464134 157.62
6.49577500 0.470367 -128.1 0.876947 -74.80 0.876947 -74.80 0.471038 157.23
6.49578000 0.477418 -128.7 0.872978 -75.26 0.872978 -75.26 0.478097 156.82
6.49578500 0.484628 -129.2 0.868840 -75.73 0.868840 -75.73 0.485315 156.41
6.49579000 0.491999 -129.8 0.864524 -76.22 0.864524 -76.22 0.492694 155.98
6.49579500 0.499536 -130.4 0.860021 -76.71 0.860021 -76.71 0.500240 155.54
6.49580000 0.507242 -131.0 0.855322 -77.23 0.855322 -77.23 0.507954 155.08
6.49580500 0.515120 -131.6 0.850416 -77.75 0.850416 -77.75 0.515841 154.61
6.49581000 0.523174 -132.2 0.845293 -78.29 0.845293 -78.29 0.523904 154.12
6.49581500 0.531406 -132.8 0.839942 -78.85 0.839942 -78.85 0.532146 153.62
6.49582000 0.539820 -133.5 0.834351 -79.42 0.834351 -79.42 0.540569 153.10
6.49582500 0.548418 -134.1 0.828507 -80.01 0.828507 -80.01 0.549177 152.56
6.49583000 0.557204 -134.8 0.822397 -80.62 0.822397 -80.62 0.557972 152.01
6.49583500 0.566178 -135.5 0.816008 -81.24 0.816008 -81.24 0.566956 151.44
6.49584000 0.575343 -136.3 0.809324 -81.88 0.809324 -81.88 0.576131 150.84
6.49584500 0.584700 -137.0 0.802332 -82.54 0.802332 -82.54 0.585499 150.23
6.49585000 0.594250 -137.8 0.795014 -83.22 0.795014 -83.22 0.595060 149.60
6.49585500 0.603994 -138.6 0.787355 -83.92 0.787355 -83.92 0.604815 148.95
6.49586000 0.613932 -139.4 0.779337 -84.64 0.779337 -84.64 0.614763 148.27
6.49586500 0.624061 -140.2 0.770942 -85.38 0.770942 -85.38 0.624904 147.58
6.49587000 0.634382 -141.0 0.762151 -86.14 0.762151 -86.14 0.635236 146.86
6.49587500 0.644890 -141.9 0.752945 -86.93 0.752945 -86.93 0.645756 146.11
6.49588000 0.655583 -142.8 0.743302 -87.73 0.743302 -87.73 0.656460 145.34
6.49588500 0.666455 -143.7 0.733204 -88.56 0.733204 -88.56 0.667345 144.55
6.49589000 0.677501 -144.7 0.722626 -89.42 0.722626 -89.42 0.678402 143.73
6.49589500 0.688713 -145.7 0.711549 -90.30 0.711549 -90.30 0.689626 142.88
6.49590000 0.700081 -146.7 0.699949 -91.21 0.699949 -91.21 0.701007 142.00
6.49590500 0.711596 -147.7 0.687803 -92.14 0.687803 -92.14 0.712534 141.10
6.49591000 0.723244 -148.8 0.675089 -93.10 0.675089 -93.10 0.724195 140.17
6.49591500 0.735011 -149.9 0.661783 -94.09 0.661783 -94.09 0.735974 139.20
6.49592000 0.746880 -151.0 0.647862 -95.10 0.647862 -95.10 0.747856 138.21
6.49592500 0.758833 -152.1 0.633303 -96.14 0.633303 -96.14 0.759821 137.19
6.49593000 0.770846 -153.3 0.618085 -97.21 0.618085 -97.21 0.771847 136.13
6.49593500 0.784692 -154.7 0.599706 -98.47 0.599706 -98.47 0.785710 134.87
!< P1 F=6.495935 Eeff=(5.67094439 -5.1693e-6) Z0=(55.5334304 2.53083e-5) R=0.00764291 C=0.00293545 
!< P2 F=6.495935 Eeff=(5.67094439 -5.1693e-6) Z0=(55.5334304 2.53083e-5) R=0.00764291 C=0.00293545 
6.49593600 0.787092 -155.0 0.596437 -98.69 0.596437 -98.69 0.788113 134.65
6.49593700 0.789493 -155.2 0.593141 -98.92 0.593141 -98.92 0.790517 134.43
6.49593800 0.791894 -155.5 0.589816 -99.14 0.589816 -99.14 0.792920 134.20
6.49593900 0.794294 -155.7 0.586463 -99.37 0.586463 -99.37 0.795323 133.98
6.49594000 0.796694 -156.0 0.583082 -99.60 0.583082 -99.60 0.797725 133.75
6.49594100 0.799092 -156.2 0.579672 -99.82 0.579672 -99.82 0.800126 133.52
6.49594200 0.801490 -156.5 0.576233 -100.1 0.576233 -100.1 0.802526 133.29
6.49594300 0.803886 -156.7 0.572766 -100.3 0.572766 -100.3 0.804924 133.06
6.49594400 0.806280 -157.0 0.569269 -100.5 0.569269 -100.5 0.807321 132.83
6.49594500 0.808673 -157.2 0.565744 -100.7 0.565744 -100.7 0.809716 132.60
6.49594600 0.811063 -157.5 0.562189 -101.0 0.562189 -101.0 0.812109 132.36
6.49594700 0.813451 -157.8 0.558604 -101.2 0.558604 -101.2 0.814499 132.13
6.49594800 0.815836 -158.0 0.554991 -101.4 0.554991 -101.4 0.816886 131.89
6.49594900 0.818218 -158.3 0.551347 -101.7 0.551347 -101.7 0.819271 131.65
6.49595000 0.820597 -158.5 0.547675 -101.9 0.547675 -101.9 0.821652 131.41
6.49595100 0.822972 -158.8 0.543972 -102.2 0.543972 -102.2 0.824029 131.17
6.49595200 0.825343 -159.1 0.540239 -102.4 0.540239 -102.4 0.826403 130.93
6.49595300 0.827710 -159.3 0.536477 -102.6 0.536477 -102.6 0.828772 130.68
6.49595400 0.830072 -159.6 0.532684 -102.9 0.532684 -102.9 0.831137 130.44
6.49595500 0.832430 -159.9 0.528861 -103.1 0.528861 -103.1 0.833497 130.19
6.49595600 0.834782 -160.2 0.525008 -103.4 0.525008 -103.4 0.835852 129.94
6.49595700 0.837129 -160.4 0.521125 -103.6 0.521125 -103.6 0.838202 129.70
6.49595800 0.839471 -160.7 0.517211 -103.9 0.517211 -103.9 0.840545 129.45
6.49595900 0.841806 -161.0 0.513267 -104.1 0.513267 -104.1 0.842883 129.19
6.49596000 0.844135 -161.3 0.509293 -104.4 0.509293 -104.4 0.845214 128.94
6.49596100 0.846457 -161.5 0.505288 -104.6 0.505288 -104.6 0.847538 128.69
6.49596200 0.848772 -161.8 0.501252 -104.9 0.501252 -104.9 0.849856 128.43
6.49596300 0.851080 -162.1 0.497186 -105.1 0.497186 -105.1 0.852166 128.17
6.49596400 0.853380 -162.4 0.493089 -105.4 0.493089 -105.4 0.854468 127.92
6.49596500 0.855671 -162.7 0.488962 -105.6 0.488962 -105.6 0.856762 127.66
6.49596600 0.857955 -163.0 0.484804 -105.9 0.484804 -105.9 0.859048 127.39
6.49596700 0.860229 -163.2 0.480615 -106.1 0.480615 -106.1 0.861324 127.13
6.49596800 0.862495 -163.5 0.476395 -106.4 0.476395 -106.4 0.863592 126.87
6.49596900 0.864750 -163.8 0.472145 -106.6 0.472145 -106.6 0.865850 126.60
6.49597000 0.866996 -164.1 0.467864 -106.9 0.467864 -106.9 0.868098 126.34
6.49597100 0.869232 -164.4 0.463553 -107.1 0.463553 -107.1 0.870336 126.07
6.49597200 0.871457 -164.7 0.459211 -107.4 0.459211 -107.4 0.872563 125.80
6.49597300 0.873671 -165.0 0.454838 -107.7 0.454838 -107.7 0.874779 125.53
6.49597400 0.875873 -165.3 0.450435 -107.9 0.450435 -107.9 0.876984 125.26
6.49597500 0.878064 -165.6 0.446001 -108.2 0.446001 -108.2 0.879177 124.99
6.49597600 0.880243 -165.9 0.441537 -108.4 0.441537 -108.4 0.881357 124.71
6.49597700 0.882409 -166.2 0.437042 -108.7 0.437042 -108.7 0.883526 124.44
6.49597800 0.884562 -166.5 0.432518 -109.0 0.432518 -109.0 0.885681 124.16
6.49597900 0.886702 -166.8 0.427962 -109.2 0.427962 -109.2 0.887823 123.89
6.49598000 0.888828 -167.1 0.423377 -109.5 0.423377 -109.5 0.889951 123.61
6.49598100 0.890940 -167.4 0.418762 -109.7 0.418762 -109.7 0.892065 123.33
6.49598200 0.893038 -167.7 0.414117 -110.0 0.414117 -110.0 0.894164 123.05
6.49598300 0.895120 -168.0 0.409442 -110.3 0.409442 -110.3 0.896249 122.76
6.49598400 0.897188 -168.3 0.404737 -110.5 0.404737 -110.5 0.898318 122.48
6.49598500 0.899239 -168.6 0.400003 -110.8 0.400003 -110.8 0.900372 122.20
6.49598600 0.901275 -168.9 0.395240 -111.1 0.395240 -111.1 0.902409 121.91
6.49598700 0.903294 -169.2 0.390447 -111.3 0.390447 -111.3 0.904430 121.62
6.49598800 0.905296 -169.5 0.385625 -111.6 0.385625 -111.6 0.906434 121.34
6.49598900 0.907280 -169.9 0.380774 -111.9 0.380774 -111.9 0.908420 121.05
6.49599000 0.909247 -170.2 0.375895 -112.1 0.375895 -112.1 0.910389 120.76
6.49599100 0.911196 -170.5 0.370987 -112.4 0.370987 -112.4 0.912339 120.46
6.49599200 0.913126 -170.8 0.366051 -112.7 0.366051 -112.7 0.914271 120.17
6.49599300 0.915037 -171.1 0.361086 -112.9 0.361086 -112.9 0.916184 119.88
6.49599400 0.916929 -171.4 0.356094 -113.2 0.356094 -113.2 0.918078 119.58
6.49599500 0.918801 -171.8 0.351074 -113.4 0.351074 -113.4 0.919952 119.29
6.49599600 0.920653 -172.1 0.346027 -113.7 0.346027 -113.7 0.921805 118.99
6.49599700 0.922485 -172.4 0.340953 -114.0 0.340953 -114.0 0.923638 118.69
6.49599800 0.924295 -172.7 0.335852 -114.2 0.335852 -114.2 0.925450 118.39
6.49599900 0.926084 -173.1 0.330724 -114.5 0.330724 -114.5 0.927241 118.09
6.49600000 0.927851 -173.4 0.325570 -114.8 0.325570 -114.8 0.929009 117.79
6.49600100 0.929596 -173.7 0.320390 -115.0 0.320390 -115.0 0.930756 117.49
6.49600200 0.931319 -174.0 0.315184 -115.3 0.315184 -115.3 0.932480 117.18
6.49600300 0.933018 -174.4 0.309953 -115.5 0.309953 -115.5 0.934181 116.88
6.49600400 0.934694 -174.7 0.304698 -115.8 0.304698 -115.8 0.935858 116.58
6.49600500 0.936347 -175.0 0.299417 -116.1 0.299417 -116.1 0.937512 116.27
6.49600600 0.937975 -175.4 0.294112 -116.3 0.294112 -116.3 0.939141 115.96
6.49600700 0.939578 -175.7 0.288783 -116.6 0.288783 -116.6 0.940746 115.65
6.49600800 0.941157 -176.0 0.283431 -116.8 0.283431 -116.8 0.942326 115.35
6.49600900 0.942711 -176.4 0.278055 -117.1 0.278055 -117.1 0.943881 115.04
6.49601000 0.944239 -176.7 0.272657 -117.3 0.272657 -117.3 0.945410 114.72
6.49601100 0.945740 -177.0 0.267237 -117.6 0.267237 -117.6 0.946913 114.41
6.49601200 0.947216 -177.4 0.261794 -117.8 0.261794 -117.8 0.948390 114.10
6.49601300 0.948665 -177.7 0.256330 -118.0 0.256330 -118.0 0.949839 113.79
6.49601400 0.950086 -178.0 0.250846 -118.3 0.250846 -118.3 0.951262 113.47
6.49601500 0.951480 -178.4 0.245340 -118.5 0.245340 -118.5 0.952657 113.16
6.49601600 0.952847 -178.7 0.239815 -118.7 0.239815 -118.7 0.954025 112.84
6.49601700 0.954185 -179.1 0.234270 -119.0 0.234270 -119.0 0.955364 112.53
6.49601800 0.955495 -179.4 0.228706 -119.2 0.228706 -119.2 0.956675 112.21
6.49601900 0.956776 -179.7 0.223124 -119.4 0.223124 -119.4 0.957957 111.89
6.49602000 0.958028 179.92 0.217523 -119.6 0.217523 -119.6 0.959210 111.57
6.49602100 0.959251 179.58 0.211906 -119.8 0.211906 -119.8 0.960433 111.25
6.49602200 0.960444 179.24 0.206271 -120.0 0.206271 -120.0 0.961627 110.94
6.49602300 0.961607 178.89 0.200620 -120.2 0.200620 -120.2 0.962791 110.62
6.49602400 0.962740 178.55 0.194954 -120.4 0.194954 -120.4 0.963924 110.29
6.49602500 0.963842 178.20 0.189273 -120.6 0.189273 -120.6 0.965027 109.97
6.49602600 0.964913 177.86 0.183577 -120.7 0.183577 -120.7 0.966099 109.65
6.49602700 0.965953 177.51 0.177868 -120.9 0.177868 -120.9 0.967140 109.33
6.49602800 0.966962 177.17 0.172146 -121.0 0.172146 -121.0 0.968149 109.00
6.49602900 0.967939 176.82 0.166411 -121.2 0.166411 -121.2 0.969127 108.68
6.49603000 0.968885 176.47 0.160665 -121.3 0.160665 -121.3 0.970073 108.36
6.49603100 0.969798 176.12 0.154909 -121.4 0.154909 -121.4 0.970987 108.03