! Sonnet Data File
! From: em Version : 14.52
! From Project: w5
! Data is De-embedded 
! Data File Written: 07/15/2018 12:04:03
!< HDATE 07/13/2018 23:59:15
!< MDATE 07/15/2018 10:11:32
# GHZ S MA R 50.00000
6.15000000 0.066352 44.862 0.997796 -41.87 0.997796 -41.87 0.066352 51.407
!< P1 F=6.15 Eeff=(5.67116779 -5.1686e-6) Z0=(58.6481272 2.67284e-5) R=0.00781181 C=0.00303615 
!< P2 F=6.15 Eeff=(5.67104335 -5.1685e-6) Z0=(55.9094277 2.54829e-5) R=0.00799627 C=0.00296515 
6.15500000 0.066393 44.822 0.997793 -41.90 0.997793 -41.90 0.066393 51.378
6.16000000 0.066433 44.783 0.997790 -41.93 0.997790 -41.93 0.066433 51.349
6.16500000 0.066473 44.743 0.997787 -41.97 0.997787 -41.97 0.066473 51.319
6.17000000 0.066514 44.704 0.997784 -42.00 0.997784 -42.00 0.066513 51.290
6.17500000 0.066553 44.664 0.997781 -42.04 0.997781 -42.04 0.066553 51.261
6.18000000 0.066593 44.624 0.997779 -42.07 0.997779 -42.07 0.066592 51.231
6.18500000 0.066633 44.584 0.997776 -42.11 0.997776 -42.11 0.066632 51.202
6.19000000 0.066672 44.544 0.997773 -42.14 0.997773 -42.14 0.066671 51.173
6.19500000 0.066711 44.504 0.997770 -42.17 0.997770 -42.17 0.066710 51.144
6.20000000 0.066750 44.464 0.997767 -42.21 0.997767 -42.21 0.066749 51.115
6.20500000 0.066789 44.424 0.997765 -42.24 0.997765 -42.24 0.066787 51.087
6.21000000 0.066827 44.384 0.997762 -42.28 0.997762 -42.28 0.066826 51.058
6.21500000 0.066866 44.343 0.997759 -42.31 0.997759 -42.31 0.066864 51.029
6.22000000 0.066904 44.303 0.997757 -42.35 0.997757 -42.35 0.066902 51.001
6.22500000 0.066942 44.262 0.997754 -42.38 0.997754 -42.38 0.066940 50.972
6.23000000 0.066979 44.222 0.997751 -42.42 0.997751 -42.42 0.066977 50.944
6.23500000 0.067016 44.181 0.997749 -42.45 0.997749 -42.45 0.067014 50.916
6.24000000 0.067053 44.140 0.997746 -42.48 0.997746 -42.48 0.067051 50.888
6.24500000 0.067090 44.099 0.997744 -42.52 0.997744 -42.52 0.067088 50.860
6.25000000 0.067127 44.057 0.997741 -42.55 0.997741 -42.55 0.067124 50.832
6.25500000 0.067163 44.016 0.997739 -42.59 0.997739 -42.59 0.067160 50.804
6.26000000 0.067198 43.975 0.997736 -42.62 0.997736 -42.62 0.067196 50.776
6.26500000 0.067234 43.933 0.997734 -42.66 0.997734 -42.66 0.067231 50.749
6.27000000 0.067269 43.891 0.997731 -42.69 0.997731 -42.69 0.067266 50.721
6.27500000 0.067303 43.849 0.997729 -42.73 0.997729 -42.73 0.067301 50.694
6.28000000 0.067338 43.806 0.997727 -42.76 0.997727 -42.76 0.067335 50.667
6.28500000 0.067371 43.764 0.997724 -42.80 0.997724 -42.80 0.067369 50.640
6.29000000 0.067405 43.721 0.997722 -42.83 0.997722 -42.83 0.067403 50.614
6.29500000 0.067438 43.678 0.997720 -42.87 0.997720 -42.87 0.067435 50.587
6.30000000 0.067470 43.635 0.997718 -42.90 0.997718 -42.90 0.067468 50.561
6.30500000 0.067502 43.591 0.997716 -42.93 0.997716 -42.93 0.067500 50.535
6.31000000 0.067533 43.548 0.997714 -42.97 0.997714 -42.97 0.067531 50.509
6.31500000 0.067564 43.503 0.997711 -43.00 0.997711 -43.00 0.067562 50.483
6.32000000 0.067594 43.459 0.997709 -43.04 0.997709 -43.04 0.067592 50.458
6.32500000 0.067624 43.414 0.997707 -43.07 0.997707 -43.07 0.067621 50.433
6.33000000 0.067652 43.369 0.997706 -43.11 0.997706 -43.11 0.067650 50.408
6.33500000 0.067680 43.323 0.997704 -43.14 0.997704 -43.14 0.067678 50.384
6.34000000 0.067707 43.277 0.997702 -43.18 0.997702 -43.18 0.067705 50.360
6.34500000 0.067734 43.231 0.997700 -43.21 0.997700 -43.21 0.067732 50.336
6.35000000 0.067759 43.184 0.997699 -43.25 0.997699 -43.25 0.067757 50.313
6.35500000 0.067783 43.136 0.997697 -43.29 0.997697 -43.29 0.067782 50.290
6.36000000 0.067807 43.088 0.997695 -43.32 0.997695 -43.32 0.067805 50.267
6.36500000 0.067829 43.039 0.997694 -43.36 0.997694 -43.36 0.067827 50.245
6.37000000 0.067850 42.989 0.997693 -43.39 0.997693 -43.39 0.067848 50.224
6.37500000 0.067869 42.939 0.997691 -43.43 0.997691 -43.43 0.067868 50.203
6.38000000 0.067887 42.888 0.997690 -43.46 0.997690 -43.46 0.067886 50.183
6.38500000 0.067904 42.836 0.997689 -43.50 0.997689 -43.50 0.067902 50.164
6.39000000 0.067918 42.783 0.997688 -43.53 0.997688 -43.53 0.067917 50.145
6.39500000 0.067931 42.729 0.997688 -43.57 0.997688 -43.57 0.067930 50.127
6.40000000 0.067942 42.674 0.997687 -43.61 0.997687 -43.61 0.067940 50.110
6.40500000 0.067950 42.617 0.997686 -43.64 0.997686 -43.64 0.067949 50.094
6.41000000 0.067956 42.559 0.997686 -43.68 0.997686 -43.68 0.067955 50.079
6.41500000 0.067959 42.499 0.997686 -43.72 0.997686 -43.72 0.067958 50.066
6.42000000 0.067958 42.437 0.997686 -43.75 0.997686 -43.75 0.067957 50.054
6.42500000 0.067955 42.374 0.997686 -43.79 0.997686 -43.79 0.067954 50.043
6.43000000 0.067947 42.308 0.997687 -43.83 0.997687 -43.83 0.067946 50.034
6.43500000 0.067934 42.239 0.997688 -43.87 0.997688 -43.87 0.067934 50.027
6.44000000 0.067917 42.168 0.997689 -43.90 0.997689 -43.90 0.067916 50.023
6.44500000 0.067894 42.093 0.997691 -43.94 0.997691 -43.94 0.067893 50.021
6.45000000 0.067864 42.014 0.997693 -43.98 0.997693 -43.98 0.067863 50.022
6.45500000 0.067826 41.930 0.997696 -44.02 0.997696 -44.02 0.067826 50.027
6.46000000 0.067779 41.842 0.997699 -44.06 0.997699 -44.06 0.067779 50.036
6.46500000 0.067722 41.746 0.997703 -44.10 0.997703 -44.10 0.067721 50.050
6.47000000 0.067652 41.644 0.997708 -44.14 0.997708 -44.14 0.067652 50.069
6.47500000 0.067567 41.532 0.997714 -44.19 0.997714 -44.19 0.067567 50.096
6.48000000 0.067464 41.409 0.997721 -44.23 0.997721 -44.23 0.067463 50.131
6.48500000 0.067338 41.273 0.997729 -44.28 0.997729 -44.28 0.067338 50.177
6.49000000 0.067184 41.119 0.997740 -44.32 0.997740 -44.32 0.067184 50.236
6.49500000 0.066995 40.943 0.997752 -44.37 0.997752 -44.37 0.066995 50.313
6.50000000 0.066759 40.738 0.997768 -44.43 0.997768 -44.43 0.066759 50.412
6.50500000 0.066462 40.494 0.997788 -44.48 0.997788 -44.48 0.066462 50.542
6.51000000 0.066082 40.196 0.997813 -44.55 0.997813 -44.55 0.066082 50.714
6.51500000 0.065582 39.819 0.997846 -44.62 0.997846 -44.62 0.065582 50.950
6.52000000 0.064905 39.321 0.997890 -44.70 0.997890 -44.70 0.064905 51.281
6.52500000 0.063947 38.624 0.997952 -44.80 0.997952 -44.80 0.063948 51.773
6.53000000 0.062504 37.564 0.998043 -44.94 0.998043 -44.94 0.062506 52.559
6.53500000 0.060119 35.729 0.998188 -45.15 0.998188 -45.15 0.060122 53.985
6.54000000 0.055502 31.709 0.998453 -45.52 0.998453 -45.52 0.055509 57.260
!< P1 F=6.54 Eeff=(5.67114483 -5.1687e-6) Z0=(58.6478099 2.67284e-5) R=0.00734832 C=0.00303611 
!< P2 F=6.54 Eeff=(5.67101759 -5.1687e-6) Z0=(55.9091356 2.54829e-5) R=0.00751954 C=0.00296512 
6.54020000 0.055228 31.446 0.998468 -45.54 0.998468 -45.54 0.055235 57.480
6.54040000 0.054943 31.169 0.998483 -45.56 0.998483 -45.56 0.054950 57.711
6.54060000 0.054647 30.877 0.998499 -45.59 0.998499 -45.59 0.054655 57.955
6.54080000 0.054340 30.570 0.998516 -45.61 0.998516 -45.61 0.054349 58.213
6.54100000 0.054021 30.247 0.998533 -45.64 0.998533 -45.64 0.054030 58.485
6.54120000 0.053690 29.905 0.998550 -45.67 0.998550 -45.67 0.053699 58.774
6.54140000 0.053344 29.543 0.998568 -45.69 0.998568 -45.69 0.053354 59.080
6.54160000 0.052985 29.160 0.998587 -45.72 0.998587 -45.72 0.052995 59.405
6.54180000 0.052610 28.754 0.998607 -45.75 0.998607 -45.75 0.052621 59.750
6.54200000 0.052219 28.322 0.998627 -45.79 0.998627 -45.79 0.052231 60.119
6.54220000 0.051812 27.861 0.998648 -45.82 0.998648 -45.82 0.051824 60.513
6.54240000 0.051386 27.370 0.998669 -45.86 0.998669 -45.86 0.051399 60.934
6.54260000 0.050941 26.844 0.998691 -45.89 0.998691 -45.89 0.050955 61.386
6.54280000 0.050476 26.281 0.998714 -45.93 0.998714 -45.93 0.050491 61.872
6.54300000 0.049990 25.676 0.998738 -45.97 0.998738 -45.97 0.050005 62.396
6.54320000 0.049481 25.024 0.998763 -46.02 0.998763 -46.02 0.049497 62.962
6.54340000 0.048947 24.319 0.998789 -46.06 0.998789 -46.06 0.048965 63.575
6.54360000 0.048388 23.556 0.998815 -46.11 0.998815 -46.11 0.048407 64.242
6.54380000 0.047803 22.727 0.998842 -46.16 0.998842 -46.16 0.047823 64.969
6.54400000 0.047189 21.823 0.998871 -46.22 0.998871 -46.22 0.047211 65.764
6.54420000 0.046545 20.834 0.998900 -46.28 0.998900 -46.28 0.046569 66.637
6.54440000 0.045870 19.748 0.998930 -46.34 0.998930 -46.34 0.045896 67.600
6.54460000 0.045163 18.549 0.998961 -46.41 0.998961 -46.41 0.045192 68.666
6.54480000 0.044424 17.222 0.998993 -46.48 0.998993 -46.48 0.044455 69.851
6.54500000 0.043651 15.745 0.999025 -46.56 0.999025 -46.56 0.043685 71.176
6.54520000 0.042847 14.093 0.999058 -46.64 0.999058 -46.64 0.042884 72.662
6.54540000 0.042012 12.236 0.999092 -46.73 0.999092 -46.73 0.042053 74.341
6.54560000 0.041150 10.136 0.999125 -46.83 0.999125 -46.83 0.041196 76.246
6.54580000 0.040269 7.7493 0.999159 -46.93 0.999159 -46.93 0.040321 78.420
6.54600000 0.039380 5.0200 0.999191 -47.05 0.999191 -47.05 0.039437 80.915
6.54620000 0.038499 1.8823 0.999222 -47.18 0.999222 -47.18 0.038564 83.795
6.54640000 0.037653 -1.743 0.999250 -47.32 0.999250 -47.32 0.037727 87.133
6.54660000 0.036882 -5.946 0.999275 -47.48 0.999275 -47.48 0.036967 91.015
6.54680000 0.036246 -10.83 0.999292 -47.66 0.999292 -47.66 0.036342 95.534
6.54700000 0.035831 -16.48 0.999301 -47.86 0.999301 -47.86 0.035941 100.78
6.54720000 0.035760 -22.99 0.999295 -48.08 0.999295 -48.08 0.035885 106.82
6.54740000 0.036203 -30.38 0.999270 -48.34 0.999270 -48.34 0.036345 113.65
6.54760000 0.037385 -38.56 0.999214 -48.64 0.999214 -48.64 0.037545 121.20
6.54780000 0.039594 -47.34 0.999114 -48.99 0.999114 -48.99 0.039772 129.23
6.54800000 0.043179 -56.41 0.998945 -49.41 0.998945 -49.41 0.043374 137.43
6.54820000 0.048565 -65.41 0.998672 -49.90 0.998672 -49.90 0.048776 145.37
6.54840000 0.056292 -74.01 0.998231 -50.51 0.998231 -50.51 0.056517 152.70
6.54860000 0.067108 -82.03 0.997512 -51.28 0.997512 -51.28 0.067347 159.15
6.54880000 0.082157 -89.45 0.996313 -52.27 0.996313 -52.27 0.082414 164.54
6.54900000 0.103347 -96.38 0.994225 -53.59 0.994225 -53.59 0.103627 168.76
6.54920000 0.134123 -103.1 0.990353 -55.46 0.990353 -55.46 0.134435 171.68
6.54940000 0.181571 -110.1 0.982407 -58.29 0.982407 -58.29 0.181934 172.95
!< P1 F=6.5494 Eeff=(5.67114413 -5.168e-6) Z0=(58.6478013 2.67284e-5) R=0.0073379 C=0.00303611 
!< P2 F=6.5494 Eeff=(5.67101673 -5.1691e-6) Z0=(55.9091272 2.54829e-5) R=0.00751113 C=0.00296511 
6.54940500 0.183066 -110.3 0.982117 -58.38 0.982117 -58.38 0.183430 172.96
6.54941000 0.184580 -110.5 0.981821 -58.47 0.981821 -58.47 0.184946 172.96
6.54941500 0.186114 -110.7 0.981519 -58.56 0.981519 -58.56 0.186482 172.97
6.54942000 0.187667 -110.9 0.981210 -58.66 0.981210 -58.66 0.188037 172.97
6.54942500 0.189241 -111.1 0.980894 -58.75 0.980894 -58.75 0.189613 172.97
6.54943000 0.190835 -111.2 0.980571 -58.84 0.980571 -58.84 0.191209 172.96
6.54943500 0.192451 -111.4 0.980242 -58.94 0.980242 -58.94 0.192826 172.96
6.54944000 0.194087 -111.6 0.979905 -59.04 0.979905 -59.04 0.194464 172.95
6.54944500 0.195746 -111.8 0.979560 -59.14 0.979560 -59.14 0.196124 172.95
6.54945000 0.197426 -112.0 0.979208 -59.24 0.979208 -59.24 0.197807 172.94
6.54945500 0.199129 -112.2 0.978848 -59.34 0.978848 -59.34 0.199512 172.93
6.54946000 0.200855 -112.4 0.978480 -59.44 0.978480 -59.44 0.201240 172.91
6.54946500 0.202605 -112.6 0.978104 -59.54 0.978104 -59.54 0.202991 172.90
6.54947000 0.204378 -112.8 0.977719 -59.65 0.977719 -59.65 0.204766 172.88
6.54947500 0.206175 -113.0 0.977325 -59.76 0.977325 -59.76 0.206566 172.86
6.54948000 0.207998 -113.2 0.976922 -59.87 0.976922 -59.87 0.208390 172.84
6.54948500 0.209845 -113.4 0.976510 -59.98 0.976510 -59.98 0.210240 172.82
6.54949000 0.211719 -113.6 0.976088 -60.09 0.976088 -60.09 0.212115 172.80
6.54949500 0.213618 -113.8 0.975656 -60.20 0.975656 -60.20 0.214017 172.77
6.54950000 0.215545 -114.0 0.975214 -60.31 0.975214 -60.31 0.215945 172.75
6.54950500 0.217499 -114.2 0.974762 -60.43 0.974762 -60.43 0.217901 172.72
6.54951000 0.219480 -114.4 0.974299 -60.55 0.974299 -60.55 0.219885 172.68
6.54951500 0.221490 -114.6 0.973824 -60.67 0.973824 -60.67 0.221897 172.65
6.54952000 0.223529 -114.9 0.973339 -60.79 0.973339 -60.79 0.223939 172.61
6.54952500 0.225598 -115.1 0.972841 -60.91 0.972841 -60.91 0.226010 172.58
6.54953000 0.227697 -115.3 0.972331 -61.04 0.972331 -61.04 0.228111 172.54
6.54953500 0.229827 -115.5 0.971809 -61.17 0.971809 -61.17 0.230243 172.49
6.54954000 0.231988 -115.7 0.971274 -61.29 0.971274 -61.29 0.232406 172.45
6.54954500 0.234181 -115.9 0.970725 -61.43 0.970725 -61.43 0.234602 172.40
6.54955000 0.236407 -116.2 0.970163 -61.56 0.970163 -61.56 0.236830 172.35
6.54955500 0.238666 -116.4 0.969587 -61.69 0.969587 -61.69 0.239092 172.30
6.54956000 0.240960 -116.6 0.968996 -61.83 0.968996 -61.83 0.241388 172.25
6.54956500 0.243288 -116.8 0.968389 -61.97 0.968389 -61.97 0.243719 172.19
6.54957000 0.245652 -117.1 0.967768 -62.11 0.967768 -62.11 0.246086 172.13
6.54957500 0.248053 -117.3 0.967130 -62.25 0.967130 -62.25 0.248489 172.07
6.54958000 0.250490 -117.5 0.966476 -62.40 0.966476 -62.40 0.250929 172.01
6.54958500 0.252966 -117.8 0.965804 -62.55 0.965804 -62.55 0.253407 171.94
6.54959000 0.255480 -118.0 0.965115 -62.70 0.965115 -62.70 0.255924 171.87
6.54959500 0.258034 -118.2 0.964407 -62.85 0.964407 -62.85 0.258481 171.80
6.54960000 0.260628 -118.5 0.963681 -63.01 0.963681 -63.01 0.261078 171.72
6.54960500 0.263264 -118.7 0.962935 -63.17 0.962935 -63.17 0.263717 171.64
6.54961000 0.265942 -119.0 0.962169 -63.33 0.962169 -63.33 0.266398 171.56
6.54961500 0.268664 -119.2 0.961382 -63.49 0.961382 -63.49 0.269122 171.48
6.54962000 0.271429 -119.5 0.960573 -63.66 0.960573 -63.66 0.271891 171.39
6.54962500 0.274240 -119.7 0.959742 -63.83 0.959742 -63.83 0.274705 171.30
6.54963000 0.277097 -120.0 0.958888 -64.00 0.958888 -64.00 0.277565 171.20
6.54963500 0.280001 -120.2 0.958010 -64.17 0.958010 -64.17 0.280472 171.11
6.54964000 0.282954 -120.5 0.957107 -64.35 0.957107 -64.35 0.283428 171.01
6.54964500 0.285956 -120.8 0.956178 -64.53 0.956178 -64.53 0.286434 170.90
6.54965000 0.289009 -121.0 0.955224 -64.71 0.955224 -64.71 0.289490 170.79
6.54965500 0.292113 -121.3 0.954241 -64.90 0.954241 -64.90 0.292598 170.68
6.54966000 0.295271 -121.6 0.953230 -65.09 0.953230 -65.09 0.295759 170.57
6.54966500 0.298482 -121.8 0.952189 -65.29 0.952189 -65.29 0.298974 170.45
6.54967000 0.301750 -122.1 0.951118 -65.49 0.951118 -65.49 0.302245 170.33
6.54967500 0.305073 -122.4 0.950015 -65.69 0.950015 -65.69 0.305572 170.20
6.54968000 0.308455 -122.7 0.948880 -65.89 0.948880 -65.89 0.308958 170.07
6.54968500 0.311897 -123.0 0.947710 -66.10 0.947710 -66.10 0.312403 169.93
6.54969000 0.315399 -123.3 0.946504 -66.31 0.946504 -66.31 0.315909 169.80
6.54969500 0.318964 -123.6 0.945262 -66.53 0.945262 -66.53 0.319478 169.65
6.54970000 0.322593 -123.9 0.943982 -66.75 0.943982 -66.75 0.323110 169.50
6.54970500 0.326287 -124.2 0.942662 -66.98 0.942662 -66.98 0.326808 169.35
6.54971000 0.330047 -124.5 0.941300 -67.21 0.941300 -67.21 0.330573 169.19
6.54971500 0.333877 -124.8 0.939897 -67.44 0.939897 -67.44 0.334407 169.03
6.54972000 0.337776 -125.1 0.938448 -67.68 0.938448 -67.68 0.338311 168.86
6.54972500 0.341748 -125.5 0.936953 -67.92 0.936953 -67.92 0.342287 168.69
6.54973000 0.345793 -125.8 0.935411 -68.17 0.935411 -68.17 0.346336 168.51
6.54973500 0.349913 -126.1 0.933818 -68.42 0.933818 -68.42 0.350461 168.33
6.54974000 0.354111 -126.5 0.932174 -68.68 0.932174 -68.68 0.354663 168.14
6.54974500 0.358388 -126.8 0.930475 -68.95 0.930475 -68.95 0.358945 167.95
6.54975000 0.362746 -127.1 0.928720 -69.22 0.928720 -69.22 0.363308 167.75
6.54975500 0.367187 -127.5 0.926906 -69.49 0.926906 -69.49 0.367754 167.54
6.54976000 0.371713 -127.9 0.925032 -69.77 0.925032 -69.77 0.372285 167.33
6.54976500 0.376327 -128.2 0.923094 -70.06 0.923094 -70.06 0.376903 167.11
6.54977000 0.381029 -128.6 0.921089 -70.35 0.921089 -70.35 0.381611 166.89
6.54977500 0.385823 -129.0 0.919016 -70.65 0.919016 -70.65 0.386410 166.65
6.54978000 0.390711 -129.4 0.916871 -70.95 0.916871 -70.95 0.391303 166.42
6.54978500 0.395694 -129.7 0.914651 -71.27 0.914651 -71.27 0.396292 166.17
6.54979000 0.400776 -130.1 0.912352 -71.59 0.912352 -71.59 0.401379 165.92
6.54979500 0.405958 -130.5 0.909972 -71.91 0.909972 -71.91 0.406567 165.66
6.54980000 0.411243 -131.0 0.907507 -72.25 0.907507 -72.25 0.411858 165.39
6.54980500 0.416634 -131.4 0.904953 -72.59 0.904953 -72.59 0.417254 165.11
6.54981000 0.422133 -131.8 0.902306 -72.93 0.902306 -72.93 0.422759 164.83
6.54981500 0.427742 -132.2 0.899563 -73.29 0.899563 -73.29 0.428374 164.54
6.54982000 0.433464 -132.7 0.896718 -73.66 0.896718 -73.66 0.434102 164.23
6.54982500 0.439301 -133.1 0.893767 -74.03 0.893767 -74.03 0.439946 163.92
6.54983000 0.445257 -133.6 0.890706 -74.41 0.890706 -74.41 0.445908 163.60
6.54983500 0.451334 -134.1 0.887530 -74.80 0.887530 -74.80 0.451992 163.27
6.54984000 0.457534 -134.5 0.884233 -75.20 0.884233 -75.20 0.458199 162.94
6.54984500 0.463860 -135.0 0.880810 -75.61 0.880810 -75.61 0.464532 162.59
6.54985000 0.470316 -135.5 0.877255 -76.03 0.877255 -76.03 0.470994 162.23
6.54985500 0.476903 -136.0 0.873561 -76.46 0.873561 -76.46 0.477588 161.86
6.54986000 0.483624 -136.6 0.869724 -76.90 0.869724 -76.90 0.484316 161.48
6.54986500 0.490481 -137.1 0.865735 -77.35 0.865735 -77.35 0.491181 161.08
6.54987000 0.497479 -137.6 0.861589 -77.82 0.861589 -77.82 0.498186 160.68
6.54987500 0.504618 -138.2 0.857277 -78.29 0.857277 -78.29 0.505333 160.26
6.54988000 0.511902 -138.7 0.852792 -78.78 0.852792 -78.78 0.512625 159.83
6.54988500 0.519333 -139.3 0.848125 -79.28 0.848125 -79.28 0.520063 159.39
6.54989000 0.526912 -139.9 0.843269 -79.79 0.843269 -79.79 0.527651 158.93
6.54989500 0.534644 -140.5 0.838214 -80.31 0.838214 -80.31 0.535391 158.47
6.54990000 0.542528 -141.1 0.832952 -80.85 0.832952 -80.85 0.543284 157.98
6.54990500 0.550568 -141.8 0.827471 -81.40 0.827471 -81.40 0.551332 157.48
6.54991000 0.558765 -142.4 0.821763 -81.97 0.821763 -81.97 0.559538 156.97
6.54991500 0.567121 -143.1 0.815816 -82.55 0.815816 -82.55 0.567902 156.44
6.54992000 0.575636 -143.7 0.809620 -83.14 0.809620 -83.14 0.576426 155.90
6.54992500 0.584311 -144.4 0.803162 -83.75 0.803162 -83.75 0.585110 155.34
6.54993000 0.593147 -145.1 0.796430 -84.38 0.796430 -84.38 0.593955 154.76
6.54993500 0.602144 -145.9 0.789413 -85.03 0.789413 -85.03 0.602962 154.16
6.54994000 0.611301 -146.6 0.782097 -85.69 0.782097 -85.69 0.612129 153.55
6.54994500 0.620619 -147.4 0.774467 -86.37 0.774467 -86.37 0.621456 152.91
6.54995000 0.630094 -148.2 0.766511 -87.06 0.766511 -87.06 0.630941 152.26
6.54995500 0.639726 -149.0 0.758214 -87.78 0.758214 -87.78 0.640583 151.59
6.54996000 0.649512 -149.8 0.749560 -88.52 0.749560 -88.52 0.650379 150.90
6.54996500 0.659447 -150.6 0.740535 -89.27 0.740535 -89.27 0.660324 150.19
6.54997000 0.669528 -151.5 0.731121 -90.04 0.731121 -90.04 0.670415 149.45
6.54997500 0.679749 -152.4 0.721304 -90.84 0.721304 -90.84 0.680647 148.69
6.54998000 0.690104 -153.3 0.711066 -91.65 0.711066 -91.65 0.691013 147.92
6.54998500 0.700586 -154.2 0.700391 -92.49 0.700391 -92.49 0.701505 147.11
6.54999000 0.711185 -155.1 0.689261 -93.35 0.689261 -93.35 0.712115 146.29
6.54999500 0.721893 -156.1 0.677660 -94.23 0.677660 -94.23 0.722834 145.44
6.55000000 0.732698 -157.1 0.665571 -95.13 0.665571 -95.13 0.733649 144.57
6.55000500 0.743586 -158.1 0.652976 -96.06 0.652976 -96.06 0.744548 143.67
6.55001000 0.754544 -159.2 0.639859 -97.01 0.639859 -97.01 0.755517 142.74
6.55001500 0.765556 -160.3 0.626204 -97.98 0.626204 -97.98 0.766540 141.79
6.55002000 0.776603 -161.4 0.611995 -98.98 0.611995 -98.98 0.777598 140.81
6.55002500 0.787668 -162.5 0.597216 -99.99 0.597216 -99.99 0.788673 139.81
6.55003000 0.798727 -163.6 0.581855 -101.0 0.581855 -101.0 0.799743 138.78
6.55003500 0.809759 -164.8 0.565898 -102.1 0.565898 -102.1 0.810785 137.72
6.55004000 0.820737 -166.0 0.549335 -103.2 0.549335 -103.2 0.821774 136.64
6.55004500 0.831635 -167.3 0.532154 -104.3 0.532154 -104.3 0.832682 135.53
6.55005000 0.842425 -168.5 0.514350 -105.4 0.514350 -105.4 0.843482 134.39
6.55005500 0.853075 -169.8 0.495917 -106.6 0.495917 -106.6 0.854142 133.22
6.55006000 0.863553 -171.1 0.476852 -107.7 0.476852 -107.7 0.864629 132.03
6.55006500 0.873825 -172.5 0.457156 -108.9 0.457156 -108.9 0.874910 130.81
6.55007000 0.883856 -173.8 0.436831 -110.1 0.436831 -110.1 0.884950 129.57
6.55007500 0.892200 -175.0 0.419025 -111.2 0.419025 -111.2 0.893301 128.49
!< P1 F=6.550075 Eeff=(5.67114463 -5.1688e-6) Z0=(58.6477987 2.67284e-5) R=0.00733661 C=0.0030361 
!< P2 F=6.550075 Eeff=(5.67101756 -5.1688e-6) Z0=(55.9091263 2.54829e-5) R=0.00750594 C=0.00296511 
6.55007550 0.893168 -175.1 0.416897 -111.3 0.416897 -111.3 0.894269 128.36
6.55007600 0.894132 -175.3 0.414763 -111.4 0.414763 -111.4 0.895234 128.23
6.55007650 0.895093 -175.4 0.412623 -111.5 0.412623 -111.5 0.896195 128.10
6.55007700 0.896050 -175.6 0.410476 -111.6 0.410476 -111.6 0.897154 127.97
6.55007750 0.897005 -175.7 0.408324 -111.8 0.408324 -111.8 0.898109 127.84
6.55007800 0.897956 -175.8 0.406165 -111.9 0.406165 -111.9 0.899061 127.71
6.55007850 0.898904 -176.0 0.404000 -112.0 0.404000 -112.0 0.900009 127.58
6.55007900 0.899848 -176.1 0.401830 -112.1 0.401830 -112.1 0.900954 127.45
6.55007950 0.900789 -176.3 0.399653 -112.3 0.399653 -112.3 0.901896 127.32
6.55008000 0.901726 -176.4 0.397470 -112.4 0.397470 -112.4 0.902834 127.19
6.55008050 0.902660 -176.6 0.395281 -112.5 0.395281 -112.5 0.903769 127.06
6.55008100 0.903591 -176.7 0.393086 -112.6 0.393086 -112.6 0.904700 126.93
6.55008150 0.904517 -176.8 0.390885 -112.7 0.390885 -112.7 0.905628 126.80
6.55008200 0.905441 -177.0 0.388678 -112.9 0.388678 -112.9 0.906552 126.67
6.55008250 0.906360 -177.1 0.386465 -113.0 0.386465 -113.0 0.907472 126.54
6.55008300 0.907276 -177.3 0.384246 -113.1 0.384246 -113.1 0.908389 126.40
6.55008350 0.908188 -177.4 0.382021 -113.2 0.382021 -113.2 0.909302 126.27
6.55008400 0.909097 -177.6 0.379790 -113.4 0.379790 -113.4 0.910211 126.14
6.55008450 0.910001 -177.7 0.377553 -113.5 0.377553 -113.5 0.911116 126.01
6.55008500 0.910902 -177.8 0.375311 -113.6 0.375311 -113.6 0.912017 125.87
6.55008550 0.911799 -178.0 0.373062 -113.7 0.373062 -113.7 0.912915 125.74
6.55008600 0.912692 -178.1 0.370808 -113.9 0.370808 -113.9 0.913809 125.61
6.55008650 0.913581 -178.3 0.368548 -114.0 0.368548 -114.0 0.914698 125.47
6.55008700 0.914466 -178.4 0.366282 -114.1 0.366282 -114.1 0.915584 125.34
6.55008750 0.915346 -178.6 0.364010 -114.2 0.364010 -114.2 0.916466 125.20
6.55008800 0.916223 -178.7 0.361733 -114.4 0.361733 -114.4 0.917343 125.07
6.55008850 0.917096 -178.9 0.359450 -114.5 0.359450 -114.5 0.918216 124.93
6.55008900 0.917965 -179.0 0.357161 -114.6 0.357161 -114.6 0.919086 124.80
6.55008950 0.918829 -179.2 0.354867 -114.7 0.354867 -114.7 0.919951 124.67
6.55009000 0.919689 -179.3 0.352566 -114.8 0.352566 -114.8 0.920812 124.53
6.55009050 0.920545 -179.5 0.350261 -115.0 0.350261 -115.0 0.921668 124.39
6.55009100 0.921396 -179.6 0.347949 -115.1 0.347949 -115.1 0.922520 124.26
6.55009150 0.922244 -179.8 0.345632 -115.2 0.345632 -115.2 0.923368 124.12
6.55009200 0.923087 -179.9 0.343310 -115.3 0.343310 -115.3 0.924212 123.99
6.55009250 0.923925 179.95 0.340982 -115.5 0.340982 -115.5 0.925051 123.85
6.55009300 0.924759 179.80 0.338648 -115.6 0.338648 -115.6 0.925885 123.71
6.55009350 0.925588 179.66 0.336309 -115.7 0.336309 -115.7 0.926715 123.58
6.55009400 0.926413 179.51 0.333965 -115.8 0.333965 -115.8 0.927541 123.44
6.55009450 0.927234 179.36 0.331615 -115.9 0.331615 -115.9 0.928362 123.30
6.55009500 0.928049 179.21 0.329260 -116.1 0.329260 -116.1 0.929178 123.17
6.55009550 0.928860 179.06 0.326899 -116.2 0.326899 -116.2 0.929990 123.03
6.55009600 0.929667 178.91 0.324533 -116.3 0.324533 -116.3 0.930797 122.89
6.55009650 0.930469 178.76 0.322162 -116.4 0.322162 -116.4 0.931599 122.75
6.55009700 0.931265 178.61 0.319786 -116.6 0.319786 -116.6 0.932397 122.61
6.55009750 0.932058 178.46 0.317404 -116.7 0.317404 -116.7 0.933189 122.48
6.55009800 0.932845 178.31 0.315017 -116.8 0.315017 -116.8 0.933977 122.34
6.55009850 0.933627 178.16 0.312625 -116.9 0.312625 -116.9 0.934760 122.20
6.55009900 0.934405 178.01 0.310228 -117.0 0.310228 -117.0 0.935538 122.06
6.55009950 0.935177 177.86 0.307826 -117.2 0.307826 -117.2 0.936312 121.92
6.55010000 0.935945 177.71 0.305418 -117.3 0.305418 -117.3 0.937080 121.78
6.55010050 0.936708 177.56 0.303006 -117.4 0.303006 -117.4 0.937843 121.64
6.55010100 0.937465 177.40 0.300588 -117.5 0.300588 -117.5 0.938601 121.50
6.55010150 0.938217 177.25 0.298166 -117.6 0.298166 -117.6 0.939354 121.36
6.55010200 0.938965 177.10 0.295739 -117.8 0.295739 -117.8 0.940102 121.22
6.55010250 0.939707 176.95 0.293306 -117.9 0.293306 -117.9 0.940844 121.08
6.55010300 0.940444 176.80 0.290869 -118.0 0.290869 -118.0 0.941582 120.94
6.55010350 0.941176 176.64 0.288427 -118.1 0.288427 -118.1 0.942314 120.80
6.55010400 0.941902 176.49 0.285981 -118.2 0.285981 -118.2 0.943041 120.66
6.55010450 0.942623 176.34 0.283529 -118.4 0.283529 -118.4 0.943762 120.52
6.55010500 0.943339 176.19 0.281073 -118.5 0.281073 -118.5 0.944479 120.38
6.55010550 0.944049 176.03 0.278612 -118.6 0.278612 -118.6 0.945190 120.23
6.55010600 0.944754 175.88 0.276147 -118.7 0.276147 -118.7 0.945895 120.09
6.55010650 0.945454 175.73 0.273677 -118.8 0.273677 -118.8 0.946595 119.95
6.55010700 0.946148 175.57 0.271202 -118.9 0.271202 -118.9 0.947290 119.81
6.55010750 0.946837 175.42 0.268723 -119.1 0.268723 -119.1 0.947979 119.67
6.55010800 0.947520 175.27 0.266240 -119.2 0.266240 -119.2 0.948662 119.53
6.55010850 0.948197 175.11 0.263752 -119.3 0.263752 -119.3 0.949340 119.38
6.55010900 0.948869 174.96 0.261259 -119.4 0.261259 -119.4 0.950012 119.24
6.55010950 0.949535 174.80 0.258763 -119.5 0.258763 -119.5 0.950679 119.10
6.55011000 0.950196 174.65 0.256262 -119.6 0.256262 -119.6 0.951340 118.95
6.55011050 0.950851 174.49 0.253757 -119.7 0.253757 -119.7 0.951995 118.81
6.55011100 0.951500 174.34 0.251247 -119.9 0.251247 -119.9 0.952645 118.67
6.55011150 0.952143 174.18 0.248734 -120.0 0.248734 -120.0 0.953289 118.53
6.55011200 0.952781 174.03 0.246216 -120.1 0.246216 -120.1 0.953927 118.38
6.55011250 0.953412 173.87 0.243694 -120.2 0.243694 -120.2 0.954559 118.24
6.55011300 0.954038 173.72 0.241168 -120.3 0.241168 -120.3 0.955185 118.09
6.55011350 0.954658 173.56 0.238638 -120.4 0.238638 -120.4 0.955805 117.95
6.55011400 0.955272 173.41 0.236105 -120.5 0.236105 -120.5 0.956419 117.81
6.55011450 0.955880 173.25 0.233567 -120.6 0.233567 -120.6 0.957028 117.66
6.55011500 0.956482 173.10 0.231026 -120.7 0.231026 -120.7 0.957630 117.52
6.55011550 0.957078 172.94 0.228481 -120.8 0.228481 -120.8 0.958227 117.37
6.55011600 0.957668 172.78 0.225932 -120.9 0.225932 -120.9 0.958817 117.23
6.55011650 0.958252 172.63 0.223379 -121.0 0.223379 -121.0 0.959401 117.08
6.55011700 0.958830 172.47 0.220823 -121.1 0.220823 -121.1 0.959979 116.94
6.55011750 0.959402 172.31 0.218263 -121.2 0.218263 -121.2 0.960551 116.79
6.55011800 0.959967 172.16 0.215700 -121.3 0.215700 -121.3 0.961117 116.65
6.55011850 0.960527 172.00 0.213133 -121.4 0.213133 -121.4 0.961677 116.50
6.55011900 0.961080 171.84 0.210563 -121.5 0.210563 -121.5 0.962230 116.36
6.55011950 0.961627 171.69 0.207989 -121.6 0.207989 -121.6 0.962777 116.21
6.55012000 0.962167 171.53 0.205412 -121.7 0.205412 -121.7 0.963318 116.07
6.55012050 0.962701 171.37 0.202832 -121.8 0.202832 -121.8 0.963853 115.92
6.55012100 0.963229 171.21 0.200249 -121.9 0.200249 -121.9 0.964381 115.77
6.55012150 0.963751 171.06 0.197663 -122.0 0.197663 -122.0 0.964903 115.63
6.55012200 0.964266 170.90 0.195073 -122.1 0.195073 -122.1 0.965418 115.48
6.55012250 0.964775 170.74 0.192481 -122.2 0.192481 -122.2 0.965927 115.34
6.55012300 0.965278 170.58 0.189885 -122.3 0.189885 -122.3 0.966430 115.19
6.55012350 0.965774 170.43 0.187287 -122.3 0.187287 -122.3 0.966926 115.04
6.55012400 0.966263 170.27 0.184686 -122.4 0.184686 -122.4 0.967416 114.90
6.55012450 0.966746 170.11 0.182082 -122.5 0.182082 -122.5 0.967899 114.75
6.55012500 0.967222 169.95 0.179475 -122.6 0.179475 -122.6 0.968376 114.60
6.55012550 0.967692 169.79 0.176866 -122.7 0.176866 -122.7 0.968846 114.46
6.55012600 0.968156 169.63 0.174254 -122.7 0.174254 -122.7 0.969309 114.31
6.55012650 0.968612 169.48 0.171639 -122.8 0.171639 -122.8 0.969766 114.16
6.55012700 0.969063 169.32 0.169023 -122.9 0.169023 -122.9 0.970216 114.01
6.55012750 0.969506 169.16 0.166403 -122.9 0.166403 -122.9 0.970660 113.87
6.55012800 0.969943 169.00 0.163782 -123.0 0.163782 -123.0 0.971097 113.72
6.55012850 0.970373 168.84 0.161158 -123.1 0.161158 -123.1 0.971527 113.57
6.55012900 0.970797 168.68 0.158532 -123.1 0.158532 -123.1 0.971951 113.42
6.55012950 0.971213 168.52 0.155904 -123.2 0.155904 -123.2 0.972368 113.28
6.55013000 0.971623 168.36 0.153275 -123.2 0.153275 -123.2 0.972778 113.13
6.55013050 0.972026 168.20 0.150643 -123.3 0.150643 -123.3 0.973181 112.98
6.55013100 0.972423 168.04 0.148009 -123.3 0.148009 -123.3 0.973578 112.83
6.55013150 0.972813 167.88 0.145374 -123.4 0.145374 -123.4 0.973967 112.69
6.55013200 0.973195 167.73 0.142737 -123.4 0.142737 -123.4 0.974350 112.54
6.55013250 0.973571 167.57 0.140098 -123.4 0.140098 -123.4 0.974726 112.39
6.55013300 0.973941 167.41 0.137458 -123.4 0.137458 -123.4 0.975096 112.24
6.55013350 0.974303 167.25 0.134816 -123.5 0.134816 -123.5 0.975458 112.09
6.55013400 0.974658 167.09 0.132174 -123.5 0.132174 -123.5 0.975813 111.95
6.55013450 0.975007 166.93 0.129530 -123.5 0.129530 -123.5 0.976162 111.80
6.55013500 0.975349 166.77 0.126885 -123.5 0.126885 -123.5 0.976504 111.65
6.55013550 0.975683 166.61 0.124239 -123.5 0.124239 -123.5 0.976838 111.50
6.55013600 0.976011 166.45 0.121592 -123.5 0.121592 -123.5 0.977166 111.35
6.55013650 0.976332 166.29 0.118944 -123.5 0.118944 -123.5 0.977487 111.20
6.55013700 0.976646 166.13 0.116296 -123.4 0.116296 -123.4 0.977801 111.05
6.55013750 0.976952 165.97 0.113647 -123.4 0.113647 -123.4 0.978107 110.91