! Sonnet Data File
! From: em Version : 14.52
! From Project: w5
! Data is De-embedded 
! Data File Written: 07/06/2018 21:20:21
!< HDATE 07/02/2018 16:02:11
!< MDATE 07/06/2018 12:13:16
# GHZ S MA R 50.00000
6.00000000 0.022332 51.139 0.999750 -40.41 0.999750 -40.41 0.022332 48.038
!< P1 F=6.0 Eeff=(5.67091921 -5.1692e-6) Z0=(51.6126833 2.3525e-5) R=0.00804523 C=0.00301476 
!< P2 F=6.0 Eeff=(5.67091921 -5.1692e-6) Z0=(51.6126833 2.3525e-5) R=0.00804523 C=0.00301476 
6.00500000 0.022348 51.107 0.999750 -40.45 0.999750 -40.45 0.022348 48.003
6.01000000 0.022363 51.075 0.999750 -40.48 0.999750 -40.48 0.022363 47.968
6.01500000 0.022378 51.043 0.999749 -40.51 0.999749 -40.51 0.022378 47.933
6.02000000 0.022394 51.010 0.999749 -40.55 0.999749 -40.55 0.022394 47.898
6.02500000 0.022409 50.978 0.999748 -40.58 0.999748 -40.58 0.022409 47.862
6.03000000 0.022424 50.946 0.999748 -40.61 0.999748 -40.61 0.022425 47.827
6.03500000 0.022440 50.913 0.999748 -40.65 0.999748 -40.65 0.022440 47.792
6.04000000 0.022455 50.881 0.999747 -40.68 0.999747 -40.68 0.022455 47.757
6.04500000 0.022470 50.849 0.999747 -40.72 0.999747 -40.72 0.022471 47.722
6.05000000 0.022486 50.817 0.999747 -40.75 0.999747 -40.75 0.022486 47.687
6.05500000 0.022501 50.784 0.999746 -40.78 0.999746 -40.78 0.022501 47.652
6.06000000 0.022516 50.752 0.999746 -40.82 0.999746 -40.82 0.022516 47.617
6.06500000 0.022532 50.720 0.999746 -40.85 0.999746 -40.85 0.022532 47.581
6.07000000 0.022547 50.687 0.999745 -40.88 0.999745 -40.88 0.022547 47.546
6.07500000 0.022562 50.655 0.999745 -40.92 0.999745 -40.92 0.022562 47.511
6.08000000 0.022577 50.623 0.999744 -40.95 0.999744 -40.95 0.022578 47.476
6.08500000 0.022593 50.590 0.999744 -40.98 0.999744 -40.98 0.022593 47.441
6.09000000 0.022608 50.558 0.999744 -41.02 0.999744 -41.02 0.022608 47.406
6.09500000 0.022623 50.526 0.999743 -41.05 0.999743 -41.05 0.022623 47.371
6.10000000 0.022638 50.494 0.999743 -41.09 0.999743 -41.09 0.022638 47.336
6.10500000 0.022653 50.461 0.999743 -41.12 0.999743 -41.12 0.022654 47.301
6.11000000 0.022669 50.429 0.999742 -41.15 0.999742 -41.15 0.022669 47.266
6.11500000 0.022684 50.397 0.999742 -41.19 0.999742 -41.19 0.022684 47.231
6.12000000 0.022699 50.364 0.999742 -41.22 0.999742 -41.22 0.022699 47.195
6.12500000 0.022714 50.332 0.999741 -41.25 0.999741 -41.25 0.022714 47.160
6.13000000 0.022729 50.300 0.999741 -41.29 0.999741 -41.29 0.022730 47.125
6.13500000 0.022744 50.267 0.999741 -41.32 0.999741 -41.32 0.022745 47.090
6.14000000 0.022760 50.235 0.999740 -41.36 0.999740 -41.36 0.022760 47.055
6.14500000 0.022775 50.203 0.999740 -41.39 0.999740 -41.39 0.022775 47.020
6.15000000 0.022790 50.171 0.999740 -41.42 0.999740 -41.42 0.022790 46.985
6.15500000 0.022805 50.138 0.999739 -41.46 0.999739 -41.46 0.022805 46.950
6.16000000 0.022820 50.106 0.999739 -41.49 0.999739 -41.49 0.022820 46.915
6.16500000 0.022835 50.074 0.999738 -41.52 0.999738 -41.52 0.022835 46.880
6.17000000 0.022850 50.041 0.999738 -41.56 0.999738 -41.56 0.022850 46.845
6.17500000 0.022865 50.009 0.999738 -41.59 0.999738 -41.59 0.022865 46.810
6.18000000 0.022880 49.977 0.999737 -41.62 0.999737 -41.62 0.022880 46.775
6.18500000 0.022895 49.944 0.999737 -41.66 0.999737 -41.66 0.022896 46.740
6.19000000 0.022910 49.912 0.999737 -41.69 0.999737 -41.69 0.022911 46.705
6.19500000 0.022925 49.880 0.999736 -41.73 0.999736 -41.73 0.022926 46.670
6.20000000 0.022940 49.847 0.999736 -41.76 0.999736 -41.76 0.022941 46.635
6.20500000 0.022955 49.815 0.999736 -41.79 0.999736 -41.79 0.022956 46.600
6.21000000 0.022970 49.783 0.999735 -41.83 0.999735 -41.83 0.022971 46.565
6.21500000 0.022985 49.750 0.999735 -41.86 0.999735 -41.86 0.022985 46.530
6.22000000 0.023000 49.718 0.999735 -41.89 0.999735 -41.89 0.023000 46.495
6.22500000 0.023015 49.686 0.999734 -41.93 0.999734 -41.93 0.023015 46.460
6.23000000 0.023030 49.653 0.999734 -41.96 0.999734 -41.96 0.023030 46.425
6.23500000 0.023045 49.621 0.999734 -42.00 0.999734 -42.00 0.023045 46.390
6.24000000 0.023060 49.588 0.999733 -42.03 0.999733 -42.03 0.023060 46.355
6.24500000 0.023075 49.556 0.999733 -42.06 0.999733 -42.06 0.023075 46.320
6.25000000 0.023090 49.524 0.999733 -42.10 0.999733 -42.10 0.023090 46.285
6.25500000 0.023105 49.491 0.999732 -42.13 0.999732 -42.13 0.023105 46.250
6.26000000 0.023119 49.459 0.999732 -42.16 0.999732 -42.16 0.023120 46.215
6.26500000 0.023134 49.427 0.999732 -42.20 0.999732 -42.20 0.023134 46.180
6.27000000 0.023149 49.394 0.999731 -42.23 0.999731 -42.23 0.023149 46.145
6.27500000 0.023164 49.362 0.999731 -42.26 0.999731 -42.26 0.023164 46.110
6.28000000 0.023179 49.329 0.999731 -42.30 0.999731 -42.30 0.023179 46.075
6.28500000 0.023194 49.297 0.999730 -42.33 0.999730 -42.33 0.023194 46.040
6.29000000 0.023208 49.265 0.999730 -42.37 0.999730 -42.37 0.023208 46.005
6.29500000 0.023223 49.232 0.999730 -42.40 0.999730 -42.40 0.023223 45.970
6.30000000 0.023238 49.200 0.999729 -42.43 0.999729 -42.43 0.023238 45.935
6.30500000 0.023253 49.167 0.999729 -42.47 0.999729 -42.47 0.023253 45.900
6.31000000 0.023267 49.135 0.999729 -42.50 0.999729 -42.50 0.023267 45.865
6.31500000 0.023282 49.103 0.999728 -42.53 0.999728 -42.53 0.023282 45.830
6.32000000 0.023297 49.070 0.999728 -42.57 0.999728 -42.57 0.023297 45.795
6.32500000 0.023311 49.038 0.999728 -42.60 0.999728 -42.60 0.023311 45.760
6.33000000 0.023326 49.005 0.999727 -42.64 0.999727 -42.64 0.023326 45.725
6.33500000 0.023341 48.973 0.999727 -42.67 0.999727 -42.67 0.023341 45.690
6.34000000 0.023355 48.940 0.999727 -42.70 0.999727 -42.70 0.023355 45.655
6.34500000 0.023370 48.908 0.999726 -42.74 0.999726 -42.74 0.023370 45.621
6.35000000 0.023384 48.875 0.999726 -42.77 0.999726 -42.77 0.023385 45.586
6.35500000 0.023399 48.843 0.999726 -42.80 0.999726 -42.80 0.023399 45.551
6.36000000 0.023414 48.810 0.999725 -42.84 0.999725 -42.84 0.023414 45.516
6.36500000 0.023428 48.778 0.999725 -42.87 0.999725 -42.87 0.023428 45.481
6.37000000 0.023443 48.745 0.999725 -42.90 0.999725 -42.90 0.023443 45.446
6.37500000 0.023457 48.713 0.999724 -42.94 0.999724 -42.94 0.023457 45.411
6.38000000 0.023472 48.680 0.999724 -42.97 0.999724 -42.97 0.023472 45.376
6.38500000 0.023486 48.648 0.999724 -43.01 0.999724 -43.01 0.023486 45.342
6.39000000 0.023501 48.615 0.999723 -43.04 0.999723 -43.04 0.023501 45.307
6.39500000 0.023515 48.583 0.999723 -43.07 0.999723 -43.07 0.023515 45.272
6.40000000 0.023529 48.550 0.999723 -43.11 0.999723 -43.11 0.023529 45.237
6.40500000 0.023544 48.517 0.999722 -43.14 0.999722 -43.14 0.023544 45.202
6.41000000 0.023558 48.485 0.999722 -43.17 0.999722 -43.17 0.023558 45.168
6.41500000 0.023572 48.452 0.999722 -43.21 0.999722 -43.21 0.023572 45.133
6.42000000 0.023587 48.420 0.999721 -43.24 0.999721 -43.24 0.023587 45.098
6.42500000 0.023601 48.387 0.999721 -43.28 0.999721 -43.28 0.023601 45.063
6.43000000 0.023615 48.354 0.999721 -43.31 0.999721 -43.31 0.023615 45.028
6.43500000 0.023630 48.322 0.999720 -43.34 0.999720 -43.34 0.023630 44.994
6.44000000 0.023644 48.289 0.999720 -43.38 0.999720 -43.38 0.023644 44.959
6.44500000 0.023658 48.256 0.999720 -43.41 0.999720 -43.41 0.023658 44.924
6.45000000 0.023672 48.223 0.999719 -43.44 0.999719 -43.44 0.023672 44.890
6.45500000 0.023686 48.191 0.999719 -43.48 0.999719 -43.48 0.023686 44.855
6.46000000 0.023700 48.158 0.999719 -43.51 0.999719 -43.51 0.023700 44.820
6.46500000 0.023714 48.125 0.999718 -43.55 0.999718 -43.55 0.023714 44.786
6.47000000 0.023728 48.092 0.999718 -43.58 0.999718 -43.58 0.023728 44.751
6.47500000 0.023742 48.060 0.999718 -43.61 0.999718 -43.61 0.023742 44.716
6.48000000 0.023756 48.027 0.999717 -43.65 0.999717 -43.65 0.023756 44.682
6.48500000 0.023770 47.994 0.999717 -43.68 0.999717 -43.68 0.023770 44.647
!< P1 F=6.485 Eeff=(5.67088723 -5.1685e-6) Z0=(51.6124537 2.3525e-5) R=0.00744984 C=0.00301473 
!< P2 F=6.485 Eeff=(5.67088723 -5.1685e-6) Z0=(51.6124537 2.3525e-5) R=0.00744984 C=0.00301473 
6.49000000 0.023784 47.961 0.999717 -43.71 0.999717 -43.71 0.023784 44.613
6.49500000 0.023798 47.928 0.999716 -43.75 0.999716 -43.75 0.023798 44.578
6.50000000 0.023812 47.895 0.999716 -43.78 0.999716 -43.78 0.023812 44.543
6.50500000 0.023826 47.862 0.999716 -43.82 0.999716 -43.82 0.023826 44.509
6.51000000 0.023840 47.829 0.999715 -43.85 0.999715 -43.85 0.023840 44.475
6.51500000 0.023853 47.796 0.999715 -43.88 0.999715 -43.88 0.023853 44.440
6.52000000 0.023867 47.763 0.999715 -43.92 0.999715 -43.92 0.023867 44.406
6.52500000 0.023881 47.730 0.999715 -43.95 0.999715 -43.95 0.023881 44.371
6.53000000 0.023894 47.697 0.999714 -43.98 0.999714 -43.98 0.023894 44.337
6.53500000 0.023908 47.664 0.999714 -44.02 0.999714 -44.02 0.023908 44.302
6.54000000 0.023921 47.631 0.999714 -44.05 0.999714 -44.05 0.023921 44.268
6.54500000 0.023935 47.598 0.999713 -44.09 0.999713 -44.09 0.023935 44.234
6.55000000 0.023948 47.564 0.999713 -44.12 0.999713 -44.12 0.023948 44.200
6.55500000 0.023961 47.531 0.999713 -44.15 0.999713 -44.15 0.023961 44.165
6.56000000 0.023975 47.498 0.999712 -44.19 0.999712 -44.19 0.023975 44.131
6.56500000 0.023988 47.464 0.999712 -44.22 0.999712 -44.22 0.023988 44.097
6.57000000 0.024001 47.431 0.999712 -44.25 0.999712 -44.25 0.024001 44.063
6.57500000 0.024014 47.397 0.999711 -44.29 0.999711 -44.29 0.024014 44.029
6.58000000 0.024027 47.364 0.999711 -44.32 0.999711 -44.32 0.024027 43.995
6.58500000 0.024040 47.330 0.999711 -44.36 0.999711 -44.36 0.024040 43.961
6.59000000 0.024053 47.297 0.999710 -44.39 0.999710 -44.39 0.024053 43.927
6.59500000 0.024065 47.263 0.999710 -44.42 0.999710 -44.42 0.024065 43.893
6.60000000 0.024078 47.229 0.999710 -44.46 0.999710 -44.46 0.024078 43.860
6.60500000 0.024091 47.195 0.999709 -44.49 0.999709 -44.49 0.024091 43.826
6.61000000 0.024103 47.161 0.999709 -44.52 0.999709 -44.52 0.024103 43.792
6.61500000 0.024115 47.127 0.999709 -44.56 0.999709 -44.56 0.024115 43.759
6.62000000 0.024128 47.093 0.999709 -44.59 0.999709 -44.59 0.024128 43.725
6.62500000 0.024140 47.059 0.999708 -44.63 0.999708 -44.63 0.024140 43.692
6.63000000 0.024152 47.025 0.999708 -44.66 0.999708 -44.66 0.024152 43.658
6.63500000 0.024164 46.990 0.999708 -44.69 0.999708 -44.69 0.024164 43.625
6.64000000 0.024175 46.956 0.999707 -44.73 0.999707 -44.73 0.024175 43.592
6.64500000 0.024187 46.921 0.999707 -44.76 0.999707 -44.76 0.024187 43.559
6.65000000 0.024198 46.886 0.999707 -44.79 0.999707 -44.79 0.024198 43.526
6.65500000 0.024209 46.851 0.999707 -44.83 0.999707 -44.83 0.024209 43.493
6.66000000 0.024220 46.816 0.999706 -44.86 0.999706 -44.86 0.024220 43.461
6.66500000 0.024231 46.780 0.999706 -44.90 0.999706 -44.90 0.024231 43.428
6.67000000 0.024242 46.745 0.999706 -44.93 0.999706 -44.93 0.024242 43.396
6.67500000 0.024252 46.709 0.999706 -44.96 0.999706 -44.96 0.024252 43.364
6.68000000 0.024262 46.673 0.999705 -45.00 0.999705 -45.00 0.024262 43.332
6.68500000 0.024271 46.637 0.999705 -45.03 0.999705 -45.03 0.024271 43.301
6.69000000 0.024281 46.600 0.999705 -45.07 0.999705 -45.07 0.024281 43.269
6.69500000 0.024290 46.563 0.999705 -45.10 0.999705 -45.10 0.024290 43.238
6.70000000 0.024298 46.526 0.999704 -45.13 0.999704 -45.13 0.024298 43.207
6.70500000 0.024306 46.488 0.999704 -45.17 0.999704 -45.17 0.024306 43.177
6.71000000 0.024314 46.450 0.999704 -45.20 0.999704 -45.20 0.024314 43.147
6.71500000 0.024321 46.412 0.999704 -45.24 0.999704 -45.24 0.024321 43.117
6.72000000 0.024327 46.373 0.999704 -45.27 0.999704 -45.27 0.024327 43.088
6.72500000 0.024333 46.333 0.999703 -45.30 0.999703 -45.30 0.024333 43.060
6.73000000 0.024337 46.292 0.999703 -45.34 0.999703 -45.34 0.024338 43.032
6.73500000 0.024341 46.251 0.999703 -45.37 0.999703 -45.37 0.024341 43.004
6.74000000 0.024344 46.208 0.999703 -45.41 0.999703 -45.41 0.024344 42.978
6.74500000 0.024345 46.165 0.999703 -45.44 0.999703 -45.44 0.024345 42.953
6.75000000 0.024345 46.120 0.999703 -45.48 0.999703 -45.48 0.024345 42.929
6.75500000 0.024343 46.074 0.999703 -45.51 0.999703 -45.51 0.024343 42.906
6.76000000 0.024339 46.025 0.999703 -45.55 0.999703 -45.55 0.024339 42.884
6.76500000 0.024333 45.975 0.999703 -45.58 0.999703 -45.58 0.024333 42.865
6.77000000 0.024323 45.922 0.999704 -45.62 0.999704 -45.62 0.024323 42.848
6.77500000 0.024309 45.865 0.999704 -45.65 0.999704 -45.65 0.024309 42.835
6.78000000 0.024291 45.803 0.999704 -45.69 0.999704 -45.69 0.024291 42.825
6.78500000 0.024266 45.736 0.999705 -45.72 0.999705 -45.72 0.024266 42.820
6.79000000 0.024233 45.662 0.999706 -45.76 0.999706 -45.76 0.024233 42.822
6.79500000 0.024188 45.577 0.999707 -45.80 0.999707 -45.80 0.024189 42.832
6.80000000 0.024128 45.478 0.999708 -45.84 0.999708 -45.84 0.024128 42.856
6.80500000 0.024044 45.356 0.999710 -45.88 0.999710 -45.88 0.024045 42.898
6.81000000 0.023925 45.202 0.999712 -45.92 0.999712 -45.92 0.023926 42.970
6.81500000 0.023745 44.989 0.999716 -45.96 0.999716 -45.96 0.023746 43.093
6.82000000 0.023452 44.664 0.999723 -46.01 0.999723 -46.01 0.023453 43.315
6.82500000 0.022907 44.080 0.999735 -46.08 0.999735 -46.08 0.022909 43.767
6.83000000 0.021586 42.604 0.999765 -46.20 0.999765 -46.20 0.021587 45.007
!< P1 F=6.83 Eeff=(5.67086246 -5.1689e-6) Z0=(51.6122782 2.3525e-5) R=0.0070766 C=0.00301471 
!< P2 F=6.83 Eeff=(5.67086246 -5.1689e-6) Z0=(51.6122782 2.3525e-5) R=0.0070766 C=0.00301471 
6.83020000 0.021494 42.496 0.999767 -46.21 0.999767 -46.21 0.021495 45.102
6.83040000 0.021396 42.380 0.999769 -46.21 0.999769 -46.21 0.021397 45.203
6.83060000 0.021292 42.256 0.999771 -46.22 0.999771 -46.22 0.021293 45.312
6.83080000 0.021181 42.123 0.999773 -46.23 0.999773 -46.23 0.021183 45.429
6.83100000 0.021063 41.981 0.999776 -46.24 0.999776 -46.24 0.021065 45.555
6.83120000 0.020938 41.826 0.999778 -46.25 0.999778 -46.25 0.020940 45.692
6.83140000 0.020804 41.660 0.999781 -46.26 0.999781 -46.26 0.020805 45.840
6.83160000 0.020660 41.479 0.999784 -46.27 0.999784 -46.27 0.020662 46.001
6.83180000 0.020505 41.281 0.999787 -46.28 0.999787 -46.28 0.020507 46.177
6.83200000 0.020339 41.066 0.999790 -46.29 0.999790 -46.29 0.020341 46.371
6.83220000 0.020159 40.829 0.999793 -46.30 0.999793 -46.30 0.020162 46.584
6.83240000 0.019965 40.567 0.999797 -46.32 0.999797 -46.32 0.019967 46.820
6.83260000 0.019753 40.277 0.999801 -46.33 0.999801 -46.33 0.019756 47.082
6.83280000 0.019522 39.954 0.999805 -46.35 0.999805 -46.35 0.019526 47.376
6.83300000 0.019270 39.590 0.999809 -46.36 0.999809 -46.36 0.019274 47.707
6.83320000 0.018993 39.179 0.999814 -46.38 0.999814 -46.38 0.018997 48.083
6.83340000 0.018686 38.711 0.999819 -46.40 0.999819 -46.40 0.018691 48.513
6.83360000 0.018346 38.172 0.999825 -46.43 0.999825 -46.43 0.018352 49.011
6.83380000 0.017967 37.545 0.999831 -46.45 0.999831 -46.45 0.017974 49.591
6.83400000 0.017542 36.806 0.999838 -46.48 0.999838 -46.48 0.017550 50.278
6.83420000 0.017062 35.924 0.999845 -46.51 0.999845 -46.51 0.017070 51.103
6.83440000 0.016515 34.852 0.999853 -46.55 0.999853 -46.55 0.016526 52.110
6.83460000 0.015889 33.521 0.999861 -46.59 0.999861 -46.59 0.015902 53.367
6.83480000 0.015166 31.827 0.999870 -46.64 0.999870 -46.64 0.015182 54.978
6.83500000 0.014324 29.600 0.999880 -46.70 0.999880 -46.70 0.014344 57.108
6.83520000 0.013337 26.549 0.999890 -46.78 0.999890 -46.78 0.013363 60.045
6.83540000 0.012178 22.141 0.999899 -46.86 0.999899 -46.86 0.012213 64.319
6.83560000 0.010835 15.302 0.999907 -46.97 0.999907 -46.97 0.010886 70.987
6.83580000 0.009379 3.7252 0.999911 -47.12 0.999911 -47.12 0.009457 82.312
6.83600000 0.008225 -17.23 0.999904 -47.31 0.999904 -47.31 0.008348 102.75
6.83620000 0.008838 -50.21 0.999868 -47.59 0.999868 -47.59 0.009007 134.57
6.83640000 0.013694 -81.03 0.999755 -48.02 0.999755 -48.02 0.013872 163.98
6.83660000 0.025684 -99.83 0.999380 -48.79 0.999380 -48.79 0.025867 -179.0
!< P1 F=6.8366 Eeff=(5.67086169 -5.1697e-6) Z0=(51.6122747 2.3525e-5) R=0.00706762 C=0.00301472 
!< P2 F=6.8366 Eeff=(5.67086169 -5.1697e-6) Z0=(51.6122747 2.3525e-5) R=0.00706762 C=0.00301472 
6.83660500 0.026126 -100.2 0.999361 -48.82 0.999361 -48.82 0.026311 -178.7
6.83661000 0.026579 -100.5 0.999343 -48.84 0.999343 -48.84 0.026764 -178.4
6.83661500 0.027042 -100.9 0.999325 -48.87 0.999325 -48.87 0.027227 -178.1
6.83662000 0.027515 -101.2 0.999306 -48.90 0.999306 -48.90 0.027701 -177.8
6.83662500 0.027998 -101.6 0.999286 -48.93 0.999286 -48.93 0.028184 -177.5
6.83663000 0.028492 -101.9 0.999265 -48.96 0.999265 -48.96 0.028679 -177.3
6.83663500 0.028997 -102.2 0.999244 -48.99 0.999244 -48.99 0.029184 -177.0
6.83664000 0.029513 -102.5 0.999222 -49.02 0.999222 -49.02 0.029701 -176.8
6.83664500 0.030041 -102.9 0.999199 -49.05 0.999199 -49.05 0.030229 -176.5
6.83665000 0.030581 -103.2 0.999175 -49.08 0.999175 -49.08 0.030770 -176.3
6.83665500 0.031133 -103.5 0.999150 -49.12 0.999150 -49.12 0.031323 -176.0
6.83666000 0.031698 -103.8 0.999124 -49.15 0.999124 -49.15 0.031889 -175.8
6.83666500 0.032276 -104.1 0.999097 -49.18 0.999097 -49.18 0.032468 -175.5
6.83667000 0.032868 -104.4 0.999070 -49.22 0.999070 -49.22 0.033060 -175.3
6.83667500 0.033474 -104.7 0.999041 -49.26 0.999041 -49.26 0.033667 -175.1
6.83668000 0.034094 -105.0 0.999010 -49.29 0.999010 -49.29 0.034288 -174.9
6.83668500 0.034730 -105.3 0.998979 -49.33 0.998979 -49.33 0.034925 -174.6
6.83669000 0.035381 -105.6 0.998946 -49.37 0.998946 -49.37 0.035577 -174.4
6.83669500 0.036048 -105.9 0.998912 -49.41 0.998912 -49.41 0.036244 -174.2
6.83670000 0.036731 -106.2 0.998877 -49.45 0.998877 -49.45 0.036929 -174.0
6.83670500 0.037432 -106.5 0.998840 -49.49 0.998840 -49.49 0.037631 -173.8
6.83671000 0.038151 -106.8 0.998802 -49.53 0.998802 -49.53 0.038351 -173.6
6.83671500 0.038888 -107.1 0.998761 -49.57 0.998761 -49.57 0.039089 -173.4
6.83672000 0.039644 -107.4 0.998719 -49.62 0.998719 -49.62 0.039846 -173.2
6.83672500 0.040420 -107.7 0.998676 -49.66 0.998676 -49.66 0.040623 -173.1
6.83673000 0.041217 -107.9 0.998630 -49.71 0.998630 -49.71 0.041421 -172.9
6.83673500 0.042035 -108.2 0.998582 -49.76 0.998582 -49.76 0.042240 -172.7
6.83674000 0.042875 -108.5 0.998532 -49.81 0.998532 -49.81 0.043082 -172.5
6.83674500 0.043738 -108.8 0.998480 -49.86 0.998480 -49.86 0.043947 -172.4
6.83675000 0.044626 -109.0 0.998425 -49.91 0.998425 -49.91 0.044836 -172.2
6.83675500 0.045538 -109.3 0.998368 -49.96 0.998368 -49.96 0.045749 -172.1
6.83676000 0.046476 -109.6 0.998308 -50.02 0.998308 -50.02 0.046689 -171.9
6.83676500 0.047442 -109.9 0.998245 -50.07 0.998245 -50.07 0.047656 -171.8
6.83677000 0.048435 -110.1 0.998180 -50.13 0.998180 -50.13 0.048652 -171.6
6.83677500 0.049459 -110.4 0.998110 -50.19 0.998110 -50.19 0.049677 -171.5
6.83678000 0.050513 -110.7 0.998038 -50.25 0.998038 -50.25 0.050732 -171.4
6.83678500 0.051599 -110.9 0.997962 -50.32 0.997962 -50.32 0.051820 -171.2
6.83679000 0.052718 -111.2 0.997881 -50.38 0.997881 -50.38 0.052942 -171.1
6.83679500 0.053873 -111.5 0.997797 -50.45 0.997797 -50.45 0.054098 -171.0
6.83680000 0.055064 -111.7 0.997708 -50.52 0.997708 -50.52 0.055292 -170.9
6.83680500 0.056294 -112.0 0.997615 -50.59 0.997615 -50.59 0.056524 -170.8
6.83681000 0.057564 -112.3 0.997516 -50.66 0.997516 -50.66 0.057796 -170.7
6.83681500 0.058876 -112.5 0.997412 -50.74 0.997412 -50.74 0.059111 -170.6
6.83682000 0.060233 -112.8 0.997303 -50.82 0.997303 -50.82 0.060470 -170.5
6.83682500 0.061637 -113.1 0.997187 -50.90 0.997187 -50.90 0.061876 -170.4
6.83683000 0.063089 -113.3 0.997064 -50.98 0.997064 -50.98 0.063331 -170.3
6.83683500 0.064593 -113.6 0.996934 -51.07 0.996934 -51.07 0.064837 -170.2
6.83684000 0.066151 -113.9 0.996797 -51.16 0.996797 -51.16 0.066398 -170.2
6.83684500 0.067766 -114.2 0.996651 -51.25 0.996651 -51.25 0.068017 -170.1
6.83685000 0.069441 -114.4 0.996496 -51.35 0.996496 -51.35 0.069695 -170.0
6.83685500 0.071181 -114.7 0.996332 -51.45 0.996332 -51.45 0.071438 -170.0
6.83686000 0.072987 -115.0 0.996157 -51.56 0.996157 -51.56 0.073248 -169.9
6.83686500 0.074865 -115.3 0.995971 -51.67 0.995971 -51.67 0.075129 -169.9
6.83687000 0.076818 -115.6 0.995773 -51.78 0.995773 -51.78 0.077086 -169.9
6.83687500 0.078852 -115.9 0.995561 -51.90 0.995561 -51.90 0.079123 -169.8
6.83688000 0.080970 -116.2 0.995335 -52.02 0.995335 -52.02 0.081246 -169.8
6.83688500 0.083179 -116.5 0.995094 -52.15 0.995094 -52.15 0.083459 -169.8
6.83689000 0.085484 -116.8 0.994835 -52.28 0.994835 -52.28 0.085768 -169.8
6.83689500 0.087891 -117.1 0.994557 -52.42 0.994557 -52.42 0.088180 -169.8
6.83690000 0.090408 -117.4 0.994259 -52.56 0.994259 -52.56 0.090702 -169.8
6.83690500 0.093041 -117.7 0.993939 -52.72 0.993939 -52.72 0.093340 -169.8
6.83691000 0.095800 -118.0 0.993594 -52.88 0.993594 -52.88 0.096104 -169.9
6.83691500 0.098692 -118.3 0.993222 -53.04 0.993222 -53.04 0.099002 -169.9
6.83692000 0.101729 -118.7 0.992819 -53.22 0.992819 -53.22 0.102045 -170.0
6.83692500 0.104920 -119.0 0.992384 -53.40 0.992384 -53.40 0.105242 -170.0
6.83693000 0.108278 -119.4 0.991911 -53.60 0.991911 -53.60 0.108607 -170.1
6.83693500 0.111815 -119.8 0.991398 -53.80 0.991398 -53.80 0.112151 -170.2
6.83694000 0.115547 -120.1 0.990839 -54.02 0.990839 -54.02 0.115891 -170.3
6.83694500 0.119490 -120.5 0.990229 -54.25 0.990229 -54.25 0.119841 -170.4
6.83695000 0.123661 -120.9 0.989562 -54.49 0.989562 -54.49 0.124021 -170.6
6.83695500 0.128081 -121.4 0.988831 -54.74 0.988831 -54.74 0.128449 -170.7
6.83696000 0.132772 -121.8 0.988027 -55.02 0.988027 -55.02 0.133150 -170.9
6.83696500 0.137760 -122.3 0.987141 -55.30 0.987141 -55.30 0.138147 -171.1
6.83697000 0.143072 -122.7 0.986162 -55.61 0.986162 -55.61 0.143470 -171.3
6.83697500 0.148741 -123.2 0.985076 -55.94 0.985076 -55.94 0.149150 -171.6
6.83698000 0.154803 -123.7 0.983869 -56.29 0.983869 -56.29 0.155225 -171.8
6.83698500 0.161300 -124.3 0.982522 -56.67 0.982522 -56.67 0.161734 -172.1
6.83699000 0.168278 -124.9 0.981013 -57.08 0.981013 -57.08 0.168726 -172.5
6.83699500 0.175792 -125.5 0.979315 -57.52 0.979315 -57.52 0.176255 -172.8
6.83700000 0.183903 -126.1 0.977399 -57.99 0.977399 -57.99 0.184382 -173.3
6.83700500 0.192683 -126.8 0.975225 -58.50 0.975225 -58.50 0.193180 -173.7
6.83701000 0.202215 -127.6 0.972748 -59.06 0.972748 -59.06 0.202732 -174.2
6.83701500 0.212597 -128.4 0.969909 -59.67 0.969909 -59.67 0.213134 -174.8
6.83702000 0.223941 -129.3 0.966639 -60.33 0.966639 -60.33 0.224501 -175.4
6.83702500 0.236380 -130.2 0.962848 -61.06 0.962848 -61.06 0.236965 -176.2
6.83703000 0.250072 -131.2 0.958425 -61.87 0.958425 -61.87 0.250685 -177.0
6.83703500 0.265202 -132.4 0.953229 -62.77 0.953229 -62.77 0.265846 -177.9
6.83704000 0.281993 -133.6 0.947076 -63.77 0.947076 -63.77 0.282670 -178.9
6.83704500 0.300707 -135.0 0.939729 -64.89 0.939729 -64.89 0.301422 179.92
6.83705000 0.321660 -136.6 0.930879 -66.15 0.930879 -66.15 0.322417 178.59
6.83705500 0.345228 -138.3 0.920113 -67.58 0.920113 -67.58 0.346032 177.05
6.83706000 0.371855 -140.3 0.906879 -69.21 0.906879 -69.21 0.372712 175.28
6.83706500 0.402062 -142.6 0.890430 -71.07 0.890430 -71.07 0.402980 173.22
6.83707000 0.436445 -145.2 0.869744 -73.23 0.869744 -73.23 0.437431 170.80
6.83707500 0.474755 -148.2 0.844245 -75.68 0.844245 -75.68 0.475812 168.04
!< P1 F=6.837075 Eeff=(5.67086171 -5.1694e-6) Z0=(51.6122755 2.3525e-5) R=0.00706421 C=0.00301472 
!< P2 F=6.837075 Eeff=(5.67086171 -5.1694e-6) Z0=(51.6122755 2.3525e-5) R=0.00706421 C=0.00301472 
6.83707525 0.476853 -148.3 0.842755 -75.81 0.842755 -75.81 0.477914 167.89
6.83707550 0.478966 -148.5 0.841245 -75.95 0.841245 -75.95 0.480032 167.73
6.83707575 0.481093 -148.7 0.839716 -76.09 0.839716 -76.09 0.482163 167.57
6.83707600 0.483234 -148.8 0.838167 -76.22 0.838167 -76.22 0.484308 167.41
6.83707625 0.485389 -149.0 0.836599 -76.36 0.836599 -76.36 0.486467 167.25
6.83707650 0.487558 -149.2 0.835010 -76.50 0.835010 -76.50 0.488641 167.09
6.83707675 0.489741 -149.4 0.833400 -76.65 0.833400 -76.65 0.490828 166.93
6.83707700 0.491939 -149.5 0.831770 -76.79 0.831770 -76.79 0.493030 166.76
6.83707725 0.494151 -149.7 0.830119 -76.93 0.830119 -76.93 0.495246 166.60
6.83707750 0.496377 -149.9 0.828446 -77.08 0.828446 -77.08 0.497476 166.43
6.83707775 0.498617 -150.1 0.826751 -77.22 0.826751 -77.22 0.499721 166.26
6.83707800 0.500872 -150.2 0.825035 -77.37 0.825035 -77.37 0.501981 166.09
6.83707825 0.503142 -150.4 0.823296 -77.52 0.823296 -77.52 0.504255 165.92
6.83707850 0.505426 -150.6 0.821534 -77.67 0.821534 -77.67 0.506544 165.74
6.83707875 0.507725 -150.8 0.819749 -77.82 0.819749 -77.82 0.508847 165.57
6.83707900 0.510039 -151.0 0.817941 -77.97 0.817941 -77.97 0.511165 165.39
6.83707925 0.512367 -151.2 0.816109 -78.13 0.816109 -78.13 0.513498 165.21
6.83707950 0.514710 -151.4 0.814253 -78.28 0.814253 -78.28 0.515846 165.03
6.83707975 0.517068 -151.6 0.812372 -78.44 0.812372 -78.44 0.518209 164.85
6.83708000 0.519441 -151.7 0.810467 -78.59 0.810467 -78.59 0.520587 164.67
6.83708025 0.521829 -151.9 0.808536 -78.75 0.808536 -78.75 0.522979 164.48
6.83708050 0.524232 -152.1 0.806579 -78.91 0.806579 -78.91 0.525387 164.29
6.83708075 0.526650 -152.3 0.804597 -79.07 0.804597 -79.07 0.527810 164.10
6.83708100 0.529084 -152.5 0.802588 -79.23 0.802588 -79.23 0.530248 163.91
6.83708125 0.531532 -152.7 0.800552 -79.39 0.800552 -79.39 0.532701 163.72
6.83708150 0.533995 -152.9 0.798490 -79.56 0.798490 -79.56 0.535169 163.53
6.83708175 0.536474 -153.2 0.796399 -79.72 0.796399 -79.72 0.537653 163.33
6.83708200 0.538968 -153.4 0.794281 -79.89 0.794281 -79.89 0.540152 163.14
6.83708225 0.541477 -153.6 0.792134 -80.06 0.792134 -80.06 0.542666 162.94
6.83708250 0.544001 -153.8 0.789958 -80.23 0.789958 -80.23 0.545195 162.74
6.83708275 0.546541 -154.0 0.787753 -80.40 0.787753 -80.40 0.547739 162.53
6.83708300 0.549096 -154.2 0.785519 -80.57 0.785519 -80.57 0.550299 162.33
6.83708325 0.551666 -154.4 0.783254 -80.74 0.783254 -80.74 0.552874 162.12
6.83708350 0.554251 -154.6 0.780958 -80.92 0.780958 -80.92 0.555465 161.92
6.83708375 0.556851 -154.9 0.778632 -81.09 0.778632 -81.09 0.558070 161.70
6.83708400 0.559467 -155.1 0.776274 -81.27 0.776274 -81.27 0.560691 161.49
6.83708425 0.562098 -155.3 0.773884 -81.45 0.773884 -81.45 0.563327 161.28
6.83708450 0.564744 -155.5 0.771462 -81.63 0.771462 -81.63 0.565979 161.06
6.83708475 0.567406 -155.8 0.769006 -81.81 0.769006 -81.81 0.568645 160.85
6.83708500 0.570082 -156.0 0.766518 -81.99 0.766518 -81.99 0.571327 160.63
6.83708525 0.572774 -156.2 0.763995 -82.18 0.763995 -82.18 0.574024 160.40
6.83708550 0.575481 -156.5 0.761438 -82.36 0.761438 -82.36 0.576736 160.18
6.83708575 0.578202 -156.7 0.758847 -82.55 0.758847 -82.55 0.579463 159.95
6.83708600 0.580939 -156.9 0.756220 -82.74 0.756220 -82.74 0.582205 159.73
6.83708625 0.583690 -157.2 0.753557 -82.93 0.753557 -82.93 0.584962 159.50
6.83708650 0.586457 -157.4 0.750857 -83.12 0.750857 -83.12 0.587733 159.26
6.83708675 0.589238 -157.7 0.748121 -83.31 0.748121 -83.31 0.590520 159.03
6.83708700 0.592033 -157.9 0.745348 -83.50 0.745348 -83.50 0.593321 158.79
6.83708725 0.594843 -158.2 0.742536 -83.70 0.742536 -83.70 0.596136 158.55
6.83708750 0.597668 -158.4 0.739686 -83.89 0.739686 -83.89 0.598967 158.31
6.83708775 0.600507 -158.7 0.736798 -84.09 0.736798 -84.09 0.601811 158.07
6.83708800 0.603360 -158.9 0.733869 -84.29 0.733869 -84.29 0.604670 157.82
6.83708825 0.606228 -159.2 0.730901 -84.49 0.730901 -84.49 0.607543 157.58
6.83708850 0.609109 -159.4 0.727892 -84.69 0.727892 -84.69 0.610430 157.33
6.83708875 0.612004 -159.7 0.724841 -84.90 0.724841 -84.90 0.613330 157.07
6.83708900 0.614913 -160.0 0.721749 -85.10 0.721749 -85.10 0.616245 156.82
6.83708925 0.617835 -160.2 0.718615 -85.31 0.718615 -85.31 0.619172 156.56
6.83708950 0.620770 -160.5 0.715438 -85.51 0.715438 -85.51 0.622114 156.30
6.83708975 0.623719 -160.8 0.712218 -85.72 0.712218 -85.72 0.625068 156.04
6.83709000 0.626680 -161.0 0.708953 -85.93 0.708953 -85.93 0.628035 155.78
6.83709025 0.629655 -161.3 0.705644 -86.14 0.705644 -86.14 0.631015 155.51
6.83709050 0.632641 -161.6 0.702290 -86.35 0.702290 -86.35 0.634008 155.24
6.83709075 0.635640 -161.9 0.698890 -86.57 0.698890 -86.57 0.637013 154.97
6.83709100 0.638651 -162.2 0.695444 -86.78 0.695444 -86.78 0.640029 154.70
6.83709125 0.641674 -162.4 0.691951 -87.00 0.691951 -87.00 0.643058 154.42
6.83709150 0.644708 -162.7 0.688411 -87.22 0.688411 -87.22 0.646098 154.14
6.83709175 0.647754 -163.0 0.684822 -87.44 0.684822 -87.44 0.649149 153.86
6.83709200 0.650810 -163.3 0.681185 -87.66 0.681185 -87.66 0.652212 153.57
6.83709225 0.653877 -163.6 0.677499 -87.88 0.677499 -87.88 0.655285 153.29
6.83709250 0.656954 -163.9 0.673763 -88.10 0.673763 -88.10 0.658368 153.00
6.83709275 0.660041 -164.2 0.669977 -88.33 0.669977 -88.33 0.661461 152.71
6.83709300 0.663138 -164.5 0.666140 -88.55 0.666140 -88.55 0.664563 152.41
6.83709325 0.666244 -164.8 0.662251 -88.78 0.662251 -88.78 0.667675 152.11
6.83709350 0.669359 -165.1 0.658310 -89.00 0.658310 -89.00 0.670796 151.81
6.83709375 0.672482 -165.5 0.654317 -89.23 0.654317 -89.23 0.673925 151.51
6.83709400 0.675613 -165.8 0.650270 -89.46 0.650270 -89.46 0.677062 151.21
6.83709425 0.678751 -166.1 0.646170 -89.69 0.646170 -89.69 0.680207 150.90
6.83709450 0.681897 -166.4 0.642015 -89.92 0.642015 -89.92 0.683359 150.59
6.83709475 0.685050 -166.7 0.637806 -90.16 0.637806 -90.16 0.686517 150.27
6.83709500 0.688208 -167.1 0.633541 -90.39 0.633541 -90.39 0.689682 149.96
6.83709525 0.691373 -167.4 0.629220 -90.62 0.629220 -90.62 0.692852 149.64
6.83709550 0.694542 -167.7 0.624843 -90.86 0.624843 -90.86 0.696028 149.31
6.83709575 0.697716 -168.1 0.620409 -91.09 0.620409 -91.09 0.699208 148.99
6.83709600 0.700894 -168.4 0.615917 -91.33 0.615917 -91.33 0.702392 148.66
6.83709625 0.704075 -168.7 0.611367 -91.56 0.611367 -91.56 0.705579 148.33
6.83709650 0.707260 -169.1 0.606759 -91.80 0.606759 -91.80 0.708769 148.00
6.83709675 0.710446 -169.4 0.602092 -92.04 0.602092 -92.04 0.711962 147.66
6.83709700 0.713634 -169.8 0.597365 -92.28 0.597365 -92.28 0.715156 147.32
6.83709725 0.716823 -170.1 0.592578 -92.52 0.592578 -92.52 0.718351 146.98