! Sonnet Data File
! From: em Version : 14.52
! From Project: w6
! Data is De-embedded 
! Data File Written: 07/15/2018 13:38:05
!< HDATE 07/14/2018 00:01:31
!< MDATE 07/15/2018 10:12:42
# GHZ S MA R 50.00000
6.15000000 0.057747 46.346 0.998331 -41.71 0.998331 -41.71 0.057747 50.235
!< P1 F=6.15 Eeff=(5.67096571 -5.1692e-6) Z0=(55.5146434 2.52993e-5) R=0.00807666 C=0.00293413 
!< P2 F=6.15 Eeff=(5.67095775 -5.1692e-6) Z0=(55.474796 2.52859e-5) R=0.00808451 C=0.00293131 
6.15500000 0.057783 46.308 0.998329 -41.74 0.998329 -41.74 0.057783 50.204
6.16000000 0.057818 46.271 0.998326 -41.78 0.998326 -41.78 0.057818 50.173
6.16500000 0.057853 46.233 0.998324 -41.81 0.998324 -41.81 0.057853 50.142
6.17000000 0.057889 46.195 0.998321 -41.85 0.998321 -41.85 0.057887 50.112
6.17500000 0.057924 46.157 0.998319 -41.88 0.998319 -41.88 0.057922 50.081
6.18000000 0.057958 46.120 0.998317 -41.91 0.998317 -41.91 0.057957 50.050
6.18500000 0.057993 46.082 0.998315 -41.95 0.998315 -41.95 0.057991 50.020
6.19000000 0.058028 46.044 0.998312 -41.98 0.998312 -41.98 0.058026 49.989
6.19500000 0.058062 46.006 0.998310 -42.02 0.998310 -42.02 0.058060 49.959
6.20000000 0.058097 45.967 0.998308 -42.05 0.998308 -42.05 0.058094 49.929
6.20500000 0.058131 45.929 0.998306 -42.09 0.998306 -42.09 0.058128 49.898
6.21000000 0.058165 45.891 0.998303 -42.12 0.998303 -42.12 0.058162 49.868
6.21500000 0.058199 45.853 0.998301 -42.15 0.998301 -42.15 0.058196 49.838
6.22000000 0.058233 45.814 0.998299 -42.19 0.998299 -42.19 0.058229 49.808
6.22500000 0.058266 45.776 0.998297 -42.22 0.998297 -42.22 0.058263 49.778
6.23000000 0.058300 45.737 0.998295 -42.26 0.998295 -42.26 0.058296 49.748
6.23500000 0.058333 45.699 0.998293 -42.29 0.998293 -42.29 0.058329 49.718
6.24000000 0.058366 45.660 0.998291 -42.32 0.998291 -42.32 0.058362 49.688
6.24500000 0.058399 45.621 0.998289 -42.36 0.998289 -42.36 0.058395 49.659
6.25000000 0.058432 45.582 0.998287 -42.39 0.998287 -42.39 0.058428 49.629
6.25500000 0.058464 45.543 0.998285 -42.43 0.998285 -42.43 0.058460 49.599
6.26000000 0.058496 45.504 0.998283 -42.46 0.998283 -42.46 0.058493 49.570
6.26500000 0.058529 45.465 0.998281 -42.50 0.998281 -42.50 0.058525 49.541
6.27000000 0.058561 45.425 0.998279 -42.53 0.998279 -42.53 0.058557 49.511
6.27500000 0.058592 45.386 0.998277 -42.56 0.998277 -42.56 0.058588 49.482
6.28000000 0.058624 45.346 0.998275 -42.60 0.998275 -42.60 0.058620 49.453
6.28500000 0.058655 45.307 0.998273 -42.63 0.998273 -42.63 0.058651 49.424
6.29000000 0.058686 45.267 0.998271 -42.67 0.998271 -42.67 0.058682 49.395
6.29500000 0.058717 45.227 0.998269 -42.70 0.998269 -42.70 0.058713 49.367
6.30000000 0.058747 45.186 0.998268 -42.74 0.998268 -42.74 0.058743 49.338
6.30500000 0.058778 45.146 0.998266 -42.77 0.998266 -42.77 0.058773 49.310
6.31000000 0.058808 45.106 0.998264 -42.81 0.998264 -42.81 0.058803 49.281
6.31500000 0.058837 45.065 0.998262 -42.84 0.998262 -42.84 0.058833 49.253
6.32000000 0.058867 45.024 0.998261 -42.87 0.998261 -42.87 0.058862 49.225
6.32500000 0.058896 44.983 0.998259 -42.91 0.998259 -42.91 0.058892 49.197
6.33000000 0.058924 44.942 0.998257 -42.94 0.998257 -42.94 0.058920 49.170
6.33500000 0.058953 44.900 0.998256 -42.98 0.998256 -42.98 0.058949 49.142
6.34000000 0.058981 44.858 0.998254 -43.01 0.998254 -43.01 0.058977 49.115
6.34500000 0.059008 44.816 0.998252 -43.05 0.998252 -43.05 0.059004 49.088
6.35000000 0.059035 44.774 0.998251 -43.08 0.998251 -43.08 0.059031 49.061
6.35500000 0.059062 44.731 0.998249 -43.12 0.998249 -43.12 0.059058 49.035
6.36000000 0.059088 44.688 0.998248 -43.15 0.998248 -43.15 0.059085 49.008
6.36500000 0.059114 44.645 0.998246 -43.19 0.998246 -43.19 0.059110 48.982
6.37000000 0.059139 44.602 0.998245 -43.22 0.998245 -43.22 0.059136 48.956
6.37500000 0.059164 44.558 0.998244 -43.25 0.998244 -43.25 0.059160 48.931
6.38000000 0.059188 44.514 0.998242 -43.29 0.998242 -43.29 0.059185 48.906
6.38500000 0.059212 44.469 0.998241 -43.32 0.998241 -43.32 0.059208 48.881
6.39000000 0.059234 44.424 0.998240 -43.36 0.998240 -43.36 0.059231 48.856
6.39500000 0.059257 44.378 0.998238 -43.39 0.998238 -43.39 0.059253 48.832
6.40000000 0.059278 44.332 0.998237 -43.43 0.998237 -43.43 0.059275 48.808
6.40500000 0.059299 44.285 0.998236 -43.46 0.998236 -43.46 0.059296 48.785
6.41000000 0.059318 44.238 0.998235 -43.50 0.998235 -43.50 0.059315 48.762
6.41500000 0.059337 44.190 0.998234 -43.53 0.998234 -43.53 0.059334 48.740
6.42000000 0.059355 44.142 0.998233 -43.57 0.998233 -43.57 0.059352 48.718
6.42500000 0.059372 44.093 0.998232 -43.60 0.998232 -43.60 0.059369 48.697
6.43000000 0.059387 44.043 0.998231 -43.64 0.998231 -43.64 0.059385 48.676
6.43500000 0.059402 43.992 0.998231 -43.68 0.998231 -43.68 0.059399 48.656
6.44000000 0.059415 43.940 0.998230 -43.71 0.998230 -43.71 0.059412 48.637
6.44500000 0.059426 43.887 0.998229 -43.75 0.998229 -43.75 0.059424 48.619
6.45000000 0.059436 43.833 0.998229 -43.78 0.998229 -43.78 0.059434 48.601
6.45500000 0.059444 43.778 0.998229 -43.82 0.998229 -43.82 0.059442 48.585
6.46000000 0.059451 43.721 0.998228 -43.85 0.998228 -43.85 0.059449 48.570
6.46500000 0.059455 43.663 0.998228 -43.89 0.998228 -43.89 0.059453 48.556
6.47000000 0.059457 43.603 0.998228 -43.93 0.998228 -43.93 0.059455 48.543
6.47500000 0.059456 43.542 0.998228 -43.96 0.998228 -43.96 0.059454 48.531
6.48000000 0.059452 43.478 0.998229 -44.00 0.998229 -44.00 0.059451 48.522
6.48500000 0.059445 43.412 0.998229 -44.04 0.998229 -44.04 0.059444 48.514
6.49000000 0.059434 43.344 0.998230 -44.07 0.998230 -44.07 0.059433 48.508
6.49500000 0.059420 43.272 0.998231 -44.11 0.998231 -44.11 0.059419 48.505
6.50000000 0.059400 43.198 0.998232 -44.15 0.998232 -44.15 0.059399 48.504
6.50500000 0.059376 43.119 0.998234 -44.19 0.998234 -44.19 0.059375 48.507
6.51000000 0.059345 43.036 0.998236 -44.23 0.998236 -44.23 0.059344 48.513
6.51500000 0.059307 42.948 0.998238 -44.26 0.998238 -44.26 0.059307 48.523
6.52000000 0.059262 42.854 0.998241 -44.30 0.998241 -44.30 0.059261 48.538
6.52500000 0.059206 42.753 0.998244 -44.34 0.998244 -44.34 0.059206 48.559
6.53000000 0.059140 42.643 0.998248 -44.39 0.998248 -44.39 0.059139 48.586
6.53500000 0.059059 42.524 0.998253 -44.43 0.998253 -44.43 0.059059 48.622
6.54000000 0.058963 42.392 0.998259 -44.47 0.998259 -44.47 0.058963 48.668
6.54500000 0.058847 42.245 0.998266 -44.51 0.998266 -44.51 0.058846 48.725
6.55000000 0.058705 42.079 0.998274 -44.56 0.998274 -44.56 0.058705 48.799
6.55500000 0.058533 41.890 0.998284 -44.61 0.998284 -44.61 0.058533 48.892
6.56000000 0.058320 41.668 0.998297 -44.66 0.998297 -44.66 0.058320 49.011
6.56500000 0.058054 41.405 0.998312 -44.72 0.998312 -44.72 0.058054 49.164
6.57000000 0.057715 41.083 0.998332 -44.78 0.998332 -44.78 0.057716 49.366
6.57500000 0.057275 40.677 0.998357 -44.84 0.998357 -44.84 0.057276 49.637
6.58000000 0.056686 40.144 0.998391 -44.92 0.998391 -44.92 0.056686 50.014
6.58500000 0.055864 39.405 0.998437 -45.02 0.998437 -45.02 0.055865 50.564
6.59000000 0.054652 38.299 0.998504 -45.14 0.998504 -45.14 0.054653 51.423
6.59500000 0.052709 36.438 0.998608 -45.32 0.998608 -45.32 0.052712 52.926
!< P1 F=6.595 Eeff=(5.67093456 -5.1687e-6) Z0=(55.5143174 2.53038e-5) R=0.00753254 C=0.00293411 
!< P2 F=6.595 Eeff=(5.67092655 -5.1687e-6) Z0=(55.4744711 2.52859e-5) R=0.00753856 C=0.00293129 
6.59520000 0.052607 36.337 0.998613 -45.33 0.998613 -45.33 0.052610 53.010
6.59540000 0.052503 36.232 0.998618 -45.34 0.998618 -45.34 0.052505 53.096
6.59560000 0.052396 36.125 0.998624 -45.35 0.998624 -45.35 0.052398 53.184
6.59580000 0.052286 36.014 0.998630 -45.36 0.998630 -45.36 0.052289 53.276
6.59600000 0.052173 35.900 0.998635 -45.37 0.998635 -45.37 0.052176 53.370
6.59620000 0.052058 35.783 0.998641 -45.38 0.998641 -45.38 0.052061 53.467
6.59640000 0.051940 35.662 0.998647 -45.39 0.998647 -45.39 0.051943 53.568
6.59660000 0.051819 35.537 0.998654 -45.40 0.998654 -45.40 0.051822 53.672
6.59680000 0.051694 35.409 0.998660 -45.41 0.998660 -45.41 0.051698 53.779
6.59700000 0.051567 35.276 0.998667 -45.42 0.998667 -45.42 0.051570 53.890
6.59720000 0.051436 35.139 0.998673 -45.43 0.998673 -45.43 0.051439 54.004
6.59740000 0.051301 34.997 0.998680 -45.44 0.998680 -45.44 0.051305 54.123
6.59760000 0.051162 34.850 0.998687 -45.45 0.998687 -45.45 0.051166 54.246
6.59780000 0.051020 34.698 0.998694 -45.47 0.998694 -45.47 0.051024 54.373
6.59800000 0.050874 34.541 0.998702 -45.48 0.998702 -45.48 0.050878 54.505
6.59820000 0.050724 34.379 0.998709 -45.49 0.998709 -45.49 0.050728 54.642
6.59840000 0.050569 34.210 0.998717 -45.51 0.998717 -45.51 0.050573 54.784
6.59860000 0.050409 34.035 0.998725 -45.52 0.998725 -45.52 0.050414 54.932
6.59880000 0.050245 33.854 0.998733 -45.53 0.998733 -45.53 0.050250 55.086
6.59900000 0.050076 33.665 0.998741 -45.55 0.998741 -45.55 0.050081 55.246
6.59920000 0.049902 33.469 0.998750 -45.56 0.998750 -45.56 0.049907 55.412
6.59940000 0.049723 33.265 0.998759 -45.58 0.998759 -45.58 0.049728 55.585
6.59960000 0.049538 33.053 0.998768 -45.59 0.998768 -45.59 0.049543 55.766
6.59980000 0.049347 32.832 0.998777 -45.61 0.998777 -45.61 0.049352 55.955
6.60000000 0.049149 32.601 0.998787 -45.63 0.998787 -45.63 0.049155 56.152
6.60020000 0.048946 32.361 0.998797 -45.64 0.998797 -45.64 0.048952 56.358
6.60040000 0.048735 32.109 0.998807 -45.66 0.998807 -45.66 0.048742 56.574
6.60060000 0.048518 31.846 0.998817 -45.68 0.998817 -45.68 0.048524 56.800
6.60080000 0.048293 31.571 0.998828 -45.70 0.998828 -45.70 0.048300 57.037
6.60100000 0.048060 31.283 0.998839 -45.72 0.998839 -45.72 0.048068 57.285
6.60120000 0.047820 30.980 0.998850 -45.74 0.998850 -45.74 0.047827 57.547
6.60140000 0.047570 30.662 0.998862 -45.76 0.998862 -45.76 0.047578 57.822
6.60160000 0.047312 30.328 0.998874 -45.79 0.998874 -45.79 0.047320 58.112
6.60180000 0.047044 29.976 0.998886 -45.81 0.998886 -45.81 0.047053 58.417
6.60200000 0.046766 29.605 0.998899 -45.83 0.998899 -45.83 0.046775 58.740
6.60220000 0.046478 29.214 0.998912 -45.86 0.998912 -45.86 0.046488 59.082
6.60240000 0.046179 28.800 0.998926 -45.88 0.998926 -45.88 0.046189 59.444
6.60260000 0.045868 28.361 0.998940 -45.91 0.998940 -45.91 0.045879 59.828
6.60280000 0.045546 27.896 0.998954 -45.94 0.998954 -45.94 0.045557 60.237
6.60300000 0.045210 27.402 0.998969 -45.97 0.998969 -45.97 0.045222 60.671
6.60320000 0.044861 26.876 0.998985 -46.00 0.998985 -46.00 0.044873 61.135
6.60340000 0.044498 26.315 0.999000 -46.03 0.999000 -46.03 0.044511 61.631
6.60360000 0.044120 25.716 0.999017 -46.07 0.999017 -46.07 0.044134 62.162
6.60380000 0.043726 25.075 0.999033 -46.11 0.999033 -46.11 0.043741 62.731
6.60400000 0.043316 24.386 0.999051 -46.14 0.999051 -46.14 0.043332 63.344
6.60420000 0.042889 23.645 0.999069 -46.18 0.999069 -46.18 0.042906 64.005
6.60440000 0.042445 22.846 0.999087 -46.23 0.999087 -46.23 0.042462 64.720
6.60460000 0.041981 21.983 0.999106 -46.27 0.999106 -46.27 0.042001 65.495
6.60480000 0.041499 21.046 0.999125 -46.32 0.999125 -46.32 0.041520 66.337
6.60500000 0.040998 20.027 0.999145 -46.37 0.999145 -46.37 0.041020 67.256
6.60520000 0.040476 18.915 0.999165 -46.42 0.999165 -46.42 0.040500 68.262
6.60540000 0.039934 17.697 0.999186 -46.48 0.999186 -46.48 0.039960 69.365
6.60560000 0.039373 16.360 0.999207 -46.54 0.999207 -46.54 0.039401 70.581
6.60580000 0.038794 14.884 0.999229 -46.61 0.999229 -46.61 0.038824 71.926
6.60600000 0.038197 13.251 0.999250 -46.68 0.999250 -46.68 0.038230 73.419
6.60620000 0.037586 11.435 0.999272 -46.75 0.999272 -46.75 0.037623 75.084
6.60640000 0.036965 9.4086 0.999293 -46.84 0.999293 -46.84 0.037006 76.947
6.60660000 0.036341 7.1369 0.999314 -46.93 0.999314 -46.93 0.036386 79.041
6.60680000 0.035724 4.5804 0.999334 -47.02 0.999334 -47.02 0.035773 81.404
6.60700000 0.035126 1.6928 0.999353 -47.13 0.999353 -47.13 0.035181 84.079
6.60720000 0.034569 -1.579 0.999369 -47.24 0.999369 -47.24 0.034630 87.117
6.60740000 0.034079 -5.294 0.999383 -47.37 0.999383 -47.37 0.034148 90.573
6.60760000 0.033696 -9.515 0.999392 -47.51 0.999392 -47.51 0.033774 94.504
6.60780000 0.033474 -14.30 0.999394 -47.67 0.999394 -47.67 0.033561 98.966
6.60800000 0.033487 -19.70 0.999388 -47.85 0.999388 -47.85 0.033585 104.00
6.60820000 0.033834 -25.74 0.999370 -48.05 0.999370 -48.05 0.033944 109.62
6.60840000 0.034642 -32.39 0.999334 -48.27 0.999334 -48.27 0.034765 115.79
6.60860000 0.036076 -39.57 0.999273 -48.53 0.999273 -48.53 0.036211 122.42
6.60880000 0.038337 -47.13 0.999177 -48.83 0.999177 -48.83 0.038485 129.34
6.60900000 0.041672 -54.86 0.999027 -49.19 0.999027 -49.19 0.041834 136.32
6.60920000 0.046387 -62.53 0.998799 -49.60 0.998799 -49.60 0.046561 143.12
6.60940000 0.052876 -69.96 0.998449 -50.11 0.998449 -50.11 0.053062 149.49
6.60960000 0.061681 -77.01 0.997906 -50.74 0.997906 -50.74 0.061881 155.25
6.60980000 0.073609 -83.64 0.997043 -51.53 0.997043 -51.53 0.073824 160.26
6.61000000 0.089942 -89.90 0.995623 -52.56 0.995623 -52.56 0.090175 164.41
6.61020000 0.112867 -95.95 0.993158 -53.96 0.993158 -53.96 0.113125 167.60
6.61040000 0.146604 -102.1 0.988522 -55.98 0.988522 -55.98 0.146899 169.63
!< P1 F=6.6104 Eeff=(5.67093389 -5.1692e-6) Z0=(55.5143013 2.53038e-5) R=0.00751483 C=0.0029341 
!< P2 F=6.6104 Eeff=(5.6709262 -5.1692e-6) Z0=(55.4744569 2.52859e-5) R=0.00751988 C=0.00293128 
6.61041000 0.148681 -102.4 0.988200 -56.11 0.988200 -56.11 0.148977 169.69
6.61042000 0.150804 -102.7 0.987863 -56.23 0.987863 -56.23 0.151102 169.75
6.61043000 0.152975 -103.0 0.987513 -56.36 0.987513 -56.36 0.153275 169.81
6.61044000 0.155195 -103.4 0.987151 -56.50 0.987151 -56.50 0.155498 169.86
6.61045000 0.157467 -103.7 0.986774 -56.63 0.986774 -56.63 0.157772 169.90
6.61046000 0.159792 -104.0 0.986383 -56.77 0.986383 -56.77 0.160099 169.95
6.61047000 0.162171 -104.3 0.985977 -56.91 0.985977 -56.91 0.162481 169.99
6.61048000 0.164607 -104.7 0.985554 -57.06 0.985554 -57.06 0.164920 170.02
6.61049000 0.167102 -105.0 0.985115 -57.20 0.985115 -57.20 0.167418 170.05
6.61050000 0.169658 -105.3 0.984658 -57.36 0.984658 -57.36 0.169976 170.07
6.61051000 0.172276 -105.7 0.984183 -57.51 0.984183 -57.51 0.172597 170.09
6.61052000 0.174959 -106.0 0.983688 -57.67 0.983688 -57.67 0.175282 170.11
6.61053000 0.177709 -106.3 0.983173 -57.83 0.983173 -57.83 0.178035 170.12
6.61054000 0.180528 -106.7 0.982636 -58.00 0.982636 -58.00 0.180858 170.12
6.61055000 0.183420 -107.0 0.982077 -58.17 0.982077 -58.17 0.183753 170.12
6.61056000 0.186386 -107.4 0.981493 -58.35 0.981493 -58.35 0.186722 170.11
6.61057000 0.189430 -107.7 0.980884 -58.53 0.980884 -58.53 0.189769 170.10
6.61058000 0.192554 -108.1 0.980249 -58.71 0.980249 -58.71 0.192897 170.08
6.61059000 0.195762 -108.5 0.979586 -58.90 0.979586 -58.90 0.196108 170.06
6.61060000 0.199056 -108.8 0.978892 -59.10 0.978892 -59.10 0.199406 170.03
6.61061000 0.202440 -109.2 0.978168 -59.30 0.978168 -59.30 0.202793 169.99
6.61062000 0.205918 -109.6 0.977410 -59.51 0.977410 -59.51 0.206275 169.95
6.61063000 0.209492 -110.0 0.976617 -59.72 0.976617 -59.72 0.209853 169.89
6.61064000 0.213168 -110.3 0.975787 -59.94 0.975787 -59.94 0.213533 169.84
6.61065000 0.216948 -110.7 0.974918 -60.16 0.974918 -60.16 0.217317 169.77
6.61066000 0.220838 -111.1 0.974007 -60.39 0.974007 -60.39 0.221211 169.70
6.61067000 0.224842 -111.5 0.973051 -60.63 0.973051 -60.63 0.225219 169.61
6.61068000 0.228964 -111.9 0.972049 -60.88 0.972049 -60.88 0.229346 169.52
6.61069000 0.233210 -112.4 0.970996 -61.13 0.970996 -61.13 0.233597 169.42
6.61070000 0.237585 -112.8 0.969890 -61.39 0.969890 -61.39 0.237976 169.32
6.61071000 0.242094 -113.2 0.968728 -61.66 0.968728 -61.66 0.242490 169.20
6.61072000 0.246743 -113.7 0.967505 -61.94 0.967505 -61.94 0.247144 169.07
6.61073000 0.251539 -114.1 0.966217 -62.22 0.966217 -62.22 0.251945 168.93
6.61074000 0.256488 -114.6 0.964861 -62.52 0.964861 -62.52 0.256899 168.79
6.61075000 0.261596 -115.0 0.963432 -62.83 0.963432 -62.83 0.262013 168.63
6.61076000 0.266872 -115.5 0.961924 -63.14 0.961924 -63.14 0.267295 168.46
6.61077000 0.272322 -116.0 0.960333 -63.47 0.960333 -63.47 0.272751 168.28
6.61078000 0.277956 -116.5 0.958651 -63.81 0.958651 -63.81 0.278391 168.08
6.61079000 0.283780 -117.0 0.956874 -64.16 0.956874 -64.16 0.284222 167.87
6.61080000 0.289806 -117.5 0.954992 -64.52 0.954992 -64.52 0.290254 167.65
6.61081000 0.296041 -118.0 0.953000 -64.90 0.953000 -64.90 0.296496 167.41
6.61082000 0.302497 -118.6 0.950889 -65.29 0.950889 -65.29 0.302958 167.16
6.61083000 0.309184 -119.1 0.948649 -65.69 0.948649 -65.69 0.309652 166.90
6.61084000 0.316113 -119.7 0.946271 -66.11 0.946271 -66.11 0.316589 166.61
6.61085000 0.323296 -120.3 0.943744 -66.55 0.943744 -66.55 0.323780 166.31
6.61086000 0.330747 -120.9 0.941056 -67.01 0.941056 -67.01 0.331239 165.99
6.61087000 0.338478 -121.5 0.938194 -67.48 0.938194 -67.48 0.338978 165.65
6.61088000 0.346503 -122.2 0.935144 -67.97 0.935144 -67.97 0.347012 165.29
6.61089000 0.354838 -122.8 0.931890 -68.48 0.931890 -68.48 0.355356 164.90
6.61090000 0.363499 -123.5 0.928416 -69.02 0.928416 -69.02 0.364026 164.50
6.61091000 0.372501 -124.2 0.924701 -69.58 0.924701 -69.58 0.373038 164.07
6.61092000 0.381862 -124.9 0.920726 -70.16 0.920726 -70.16 0.382409 163.61
6.61093000 0.391601 -125.7 0.916467 -70.77 0.916467 -70.77 0.392159 163.13
6.61094000 0.401737 -126.5 0.911900 -71.40 0.911900 -71.40 0.402306 162.62
6.61095000 0.412290 -127.3 0.906996 -72.07 0.906996 -72.07 0.412870 162.07
6.61096000 0.423281 -128.1 0.901724 -72.76 0.901724 -72.76 0.423873 161.50
6.61097000 0.434732 -129.0 0.896052 -73.49 0.896052 -73.49 0.435336 160.88
6.61098000 0.446664 -129.9 0.889940 -74.25 0.889940 -74.25 0.447280 160.24
6.61099000 0.459101 -130.9 0.883348 -75.06 0.883348 -75.06 0.459731 159.55
6.61100000 0.472066 -131.9 0.876229 -75.90 0.876229 -75.90 0.472710 158.82
6.61101000 0.485583 -132.9 0.868532 -76.78 0.868532 -76.78 0.486241 158.04
6.61102000 0.499675 -134.0 0.860202 -77.71 0.860202 -77.71 0.500348 157.22
6.61103000 0.514364 -135.1 0.851175 -78.69 0.851175 -78.69 0.515053 156.35
6.61104000 0.529673 -136.3 0.841383 -79.72 0.841383 -79.72 0.530378 155.42
6.61105000 0.545622 -137.5 0.830750 -80.81 0.830750 -80.81 0.546344 154.43
6.61106000 0.562227 -138.8 0.819193 -81.96 0.819193 -81.96 0.562967 153.38
6.61107000 0.579503 -140.2 0.806619 -83.16 0.806619 -83.16 0.580261 152.27
6.61108000 0.597459 -141.6 0.792928 -84.44 0.792928 -84.44 0.598236 151.08
6.61109000 0.616097 -143.1 0.778011 -85.79 0.778011 -85.79 0.616893 149.82
6.61110000 0.635412 -144.7 0.761749 -87.21 0.761749 -87.21 0.636228 148.49
6.61111000 0.655387 -146.4 0.744015 -88.71 0.744015 -88.71 0.656223 147.06
6.61112000 0.675993 -148.2 0.724672 -90.29 0.724672 -90.29 0.676851 145.55
6.61113000 0.697186 -150.0 0.703579 -91.97 0.703579 -91.97 0.698065 143.94
6.61114000 0.718902 -152.0 0.680584 -93.73 0.680584 -93.73 0.719803 142.23
6.61115000 0.741053 -154.0 0.655538 -95.59 0.655538 -95.59 0.741977 140.42
6.61116000 0.763528 -156.2 0.628289 -97.55 0.628289 -97.55 0.764474 138.50
6.61117000 0.786185 -158.4 0.598692 -99.60 0.598692 -99.60 0.787154 136.46
6.61118000 0.809842 -160.9 0.565039 -101.9 0.565039 -101.9 0.810838 134.21
!< P1 F=6.61118 Eeff=(5.6709337 -5.1688e-6) Z0=(55.5143035 2.53038e-5) R=0.00751248 C=0.0029341 
!< P2 F=6.61118 Eeff=(5.67092601 -5.1688e-6) Z0=(55.474459 2.52859e-5) R=0.00751749 C=0.00293128 
6.61118100 0.812100 -161.2 0.561679 -102.1 0.561679 -102.1 0.813098 133.99
6.61118200 0.814356 -161.4 0.558292 -102.3 0.558292 -102.3 0.815356 133.77
6.61118300 0.816609 -161.7 0.554880 -102.5 0.554880 -102.5 0.817611 133.54
6.61118400 0.818859 -161.9 0.551441 -102.7 0.551441 -102.7 0.819864 133.32
6.61118500 0.821106 -162.2 0.547976 -103.0 0.547976 -103.0 0.822113 133.09
6.61118600 0.823350 -162.4 0.544484 -103.2 0.544484 -103.2 0.824359 132.86
6.61118700 0.825590 -162.7 0.540966 -103.4 0.540966 -103.4 0.826602 132.64
6.61118800 0.827827 -162.9 0.537421 -103.6 0.537421 -103.6 0.828840 132.41
6.61118900 0.830060 -163.2 0.533850 -103.9 0.533850 -103.9 0.831075 132.18
6.61119000 0.832288 -163.4 0.530252 -104.1 0.530252 -104.1 0.833306 131.94
6.61119100 0.834512 -163.7 0.526628 -104.3 0.526628 -104.3 0.835532 131.71
6.61119200 0.836731 -163.9 0.522976 -104.6 0.522976 -104.6 0.837753 131.47
6.61119300 0.838945 -164.2 0.519298 -104.8 0.519298 -104.8 0.839969 131.24
6.61119400 0.841154 -164.5 0.515592 -105.0 0.515592 -105.0 0.842180 131.00
6.61119500 0.843357 -164.7 0.511860 -105.3 0.511860 -105.3 0.844385 130.76
6.61119600 0.845554 -165.0 0.508100 -105.5 0.508100 -105.5 0.846584 130.53
6.61119700 0.847745 -165.2 0.504314 -105.7 0.504314 -105.7 0.848777 130.28
6.61119800 0.849930 -165.5 0.500500 -106.0 0.500500 -106.0 0.850964 130.04
6.61119900 0.852108 -165.8 0.496660 -106.2 0.496660 -106.2 0.853144 129.80
6.61120000 0.854278 -166.0 0.492792 -106.4 0.492792 -106.4 0.855317 129.56
6.61120100 0.856442 -166.3 0.488897 -106.7 0.488897 -106.7 0.857482 129.31
6.61120200 0.858598 -166.6 0.484975 -106.9 0.484975 -106.9 0.859640 129.07
6.61120300 0.860746 -166.9 0.481025 -107.2 0.481025 -107.2 0.861790 128.82
6.61120400 0.862886 -167.1 0.477049 -107.4 0.477049 -107.4 0.863932 128.57
6.61120500 0.865017 -167.4 0.473045 -107.6 0.473045 -107.6 0.866065 128.32
6.61120600 0.867140 -167.7 0.469014 -107.9 0.469014 -107.9 0.868190 128.07
6.61120700 0.869253 -167.9 0.464956 -108.1 0.464956 -108.1 0.870305 127.82
6.61120800 0.871357 -168.2 0.460871 -108.4 0.460871 -108.4 0.872411 127.57
6.61120900 0.873451 -168.5 0.456759 -108.6 0.456759 -108.6 0.874507 127.31
6.61121000 0.875536 -168.8 0.452620 -108.9 0.452620 -108.9 0.876593 127.06
6.61121100 0.877609 -169.1 0.448453 -109.1 0.448453 -109.1 0.878669 126.80
6.61121200 0.879673 -169.3 0.444260 -109.4 0.444260 -109.4 0.880734 126.54
6.61121300 0.881725 -169.6 0.440040 -109.6 0.440040 -109.6 0.882788 126.28
6.61121400 0.883766 -169.9 0.435792 -109.9 0.435792 -109.9 0.884831 126.02
6.61121500 0.885795 -170.2 0.431519 -110.1 0.431519 -110.1 0.886862 125.76
6.61121600 0.887812 -170.5 0.427218 -110.3 0.427218 -110.3 0.888881 125.50
6.61121700 0.889817 -170.8 0.422891 -110.6 0.422891 -110.6 0.890887 125.24
6.61121800 0.891809 -171.0 0.418537 -110.8 0.418537 -110.8 0.892881 124.97
6.61121900 0.893788 -171.3 0.414156 -111.1 0.414156 -111.1 0.894862 124.71
6.61122000 0.895754 -171.6 0.409750 -111.3 0.409750 -111.3 0.896830 124.44
6.61122100 0.897706 -171.9 0.405317 -111.6 0.405317 -111.6 0.898783 124.18
6.61122200 0.899644 -172.2 0.400858 -111.8 0.400858 -111.8 0.900723 123.91
6.61122300 0.901568 -172.5 0.396372 -112.1 0.396372 -112.1 0.902649 123.64
6.61122400 0.903477 -172.8 0.391861 -112.3 0.391861 -112.3 0.904560 123.37
6.61122500 0.905371 -173.1 0.387325 -112.6 0.387325 -112.6 0.906455 123.10
6.61122600 0.907250 -173.4 0.382762 -112.9 0.382762 -112.9 0.908336 122.82
6.61122700 0.909113 -173.7 0.378175 -113.1 0.378175 -113.1 0.910201 122.55
6.61122800 0.910961 -174.0 0.373561 -113.4 0.373561 -113.4 0.912049 122.28
6.61122900 0.912791 -174.3 0.368923 -113.6 0.368923 -113.6 0.913882 122.00
6.61123000 0.914605 -174.6 0.364260 -113.9 0.364260 -113.9 0.915697 121.73
6.61123100 0.916402 -174.9 0.359572 -114.1 0.359572 -114.1 0.917496 121.45
6.61123200 0.918182 -175.2 0.354860 -114.4 0.354860 -114.4 0.919277 121.17
6.61123300 0.919944 -175.5 0.350123 -114.6 0.350123 -114.6 0.921040 120.89
6.61123400 0.921688 -175.8 0.345362 -114.9 0.345362 -114.9 0.922786 120.61
6.61123500 0.923413 -176.1 0.340577 -115.1 0.340577 -115.1 0.924513 120.33
6.61123600 0.925120 -176.4 0.335769 -115.4 0.335769 -115.4 0.926221 120.05
6.61123700 0.926808 -176.7 0.330937 -115.6 0.330937 -115.6 0.927910 119.76
6.61123800 0.928476 -177.0 0.326081 -115.9 0.326081 -115.9 0.929579 119.48
6.61123900 0.930125 -177.3 0.321203 -116.1 0.321203 -116.1 0.931229 119.20
6.61124000 0.931753 -177.6 0.316302 -116.4 0.316302 -116.4 0.932859 118.91
6.61124100 0.933361 -177.9 0.311379 -116.6 0.311379 -116.6 0.934469 118.62
6.61124200 0.934949 -178.2 0.306434 -116.9 0.306434 -116.9 0.936057 118.34
6.61124300 0.936515 -178.5 0.301466 -117.1 0.301466 -117.1 0.937625 118.05
6.61124400 0.938060 -178.8 0.296477 -117.3 0.296477 -117.3 0.939171 117.76
6.61124500 0.939584 -179.2 0.291467 -117.6 0.291467 -117.6 0.940695 117.47
6.61124600 0.941085 -179.5 0.286436 -117.8 0.286436 -117.8 0.942198 117.18
6.61124700 0.942564 -179.8 0.281384 -118.1 0.281384 -118.1 0.943678 116.89
6.61124800 0.944020 179.90 0.276312 -118.3 0.276312 -118.3 0.945136 116.60
6.61124900 0.945454 179.59 0.271220 -118.5 0.271220 -118.5 0.946570 116.30
6.61125000 0.946864 179.27 0.266109 -118.8 0.266109 -118.8 0.947981 116.01
6.61125100 0.948251 178.95 0.260978 -119.0 0.260978 -119.0 0.949369 115.71
6.61125200 0.949614 178.64 0.255829 -119.2 0.255829 -119.2 0.950733 115.42
6.61125300 0.950953 178.32 0.250661 -119.5 0.250661 -119.5 0.952073 115.12
6.61125400 0.952267 178.00 0.245474 -119.7 0.245474 -119.7 0.953388 114.83
6.61125500 0.953557 177.68 0.240271 -119.9 0.240271 -119.9 0.954679 114.53
6.61125600 0.954822 177.36 0.235050 -120.1 0.235050 -120.1 0.955944 114.23
6.61125700 0.956061 177.04 0.229812 -120.3 0.229812 -120.3 0.957185 113.93
6.61125800 0.957275 176.72 0.224557 -120.5 0.224557 -120.5 0.958399 113.63
6.61125900 0.958464 176.39 0.219287 -120.7 0.219287 -120.7 0.959588 113.34
6.61126000 0.959626 176.07 0.214001 -120.9 0.214001 -120.9 0.960751 113.04
6.61126100 0.960762 175.75 0.208700 -121.1 0.208700 -121.1 0.961888 112.73
6.61126200 0.961871 175.43 0.203385 -121.3 0.203385 -121.3 0.962998 112.43
6.61126300 0.962954 175.10 0.198056 -121.5 0.198056 -121.5 0.964081 112.13
6.61126400 0.964009 174.78 0.192713 -121.7 0.192713 -121.7 0.965137 111.83
6.61126500 0.965038 174.45 0.187357 -121.9 0.187357 -121.9 0.966166 111.53
6.61126600 0.966039 174.13 0.181988 -122.0 0.181988 -122.0 0.967168 111.22
6.61126700 0.967012 173.80 0.176608 -122.2 0.176608 -122.2 0.968142 110.92
6.61126800 0.967958 173.47 0.171217 -122.3 0.171217 -122.3 0.969087 110.61
6.61126900 0.968875 173.15 0.165814 -122.4 0.165814 -122.4 0.970005 110.31
6.61127000 0.969764 172.82 0.160402 -122.6 0.160402 -122.6 0.970895 110.00
6.61127100 0.970625 172.49 0.154980 -122.7 0.154980 -122.7 0.971756 109.70
6.61127200 0.971456 172.16 0.149550 -122.7 0.149550 -122.7 0.972588 109.39
6.61127300 0.972260 171.84 0.144111 -122.8 0.144111 -122.8 0.973391 109.09
6.61127400 0.973034 171.51 0.138666 -122.9 0.138666 -122.9 0.974165 108.78
6.61127500 0.973779 171.18 0.133214 -122.9 0.133214 -122.9 0.974911 108.47
6.61127600 0.974494 170.85 0.127757 -122.9 0.127757 -122.9 0.975626 108.17
6.61127700 0.975180 170.52 0.122295 -122.9 0.122295 -122.9 0.976313 107.86
6.61127800 0.975837 170.19 0.116830 -122.8 0.116830 -122.8 0.976969 107.55
6.61127900 0.976464 169.86 0.111363 -122.7 0.111363 -122.7 0.977596 107.24
6.61128000 0.977061 169.53 0.105896 -122.6 0.105896 -122.6 0.978193 106.93
6.61128100 0.977628 169.20 0.100429 -122.4 0.100429 -122.4 0.978761 106.63
6.61128200 0.978165 168.87 0.094964 -122.2 0.094964 -122.2 0.979298 106.32
6.61128300 0.978672 168.54 0.089505 -121.9 0.089505 -121.9 0.979804 106.01
6.61128400 0.979149 168.21 0.084052 -121.5 0.084052 -121.5 0.980281 105.70
6.61128500 0.979595 167.88 0.078610 -121.0 0.078610 -121.0 0.980727 105.39
6.61128600 0.980011 167.54 0.073182 -120.4 0.073182 -120.4 0.981143 105.08
6.61128700 0.980396 167.21 0.067773 -119.6 0.067773 -119.6 0.981528 104.77
6.61128800 0.980751 166.88 0.062389 -118.6 0.062389 -118.6 0.981883 104.46
6.61128900 0.981076 166.55 0.057040 -117.5 0.057040 -117.5 0.982207 104.15
6.61129000 0.981370 166.22 0.051736 -115.9 0.051736 -115.9 0.982500 103.85
6.61129100 0.981633 165.89 0.046495 -114.0 0.046495 -114.0 0.982763 103.54
6.61129200 0.981865 165.56 0.041341 -111.6 0.041341 -111.6 0.982995 103.23
6.61129300 0.982067 165.23 0.036313 -108.3 0.036313 -108.3 0.983197 102.92
6.61129400 0.982239 164.90 0.031472 -103.9 0.031472 -103.9 0.983368 102.61
6.61129500 0.982379 164.57 0.026919 -97.88 0.026919 -97.88 0.983508 102.30
6.61129600 0.982489 164.23 0.022827 -89.43 0.022827 -89.43 0.983617 101.99
6.61129700 0.982568 163.90 0.019486 -77.59 0.019486 -77.59 0.983696 101.68
6.61129800 0.982617 163.57 0.017338 -61.83 0.017338 -61.83 0.983744 101.37
6.61129900 0.982635 163.24 0.016840 -43.46 0.016840 -43.46 0.983762 101.06
!< P1 F=6.611299 Eeff=(5.67093407 -5.1687e-6) Z0=(55.5143024 2.53038e-5) R=0.00751225 C=0.0029341 
!< P2 F=6.611299 Eeff=(5.67092601 -5.1687e-6) Z0=(55.4744559 2.52814e-5) R=0.00751938 C=0.00293128 
6.61130000 0.982623 162.91 0.018122 -25.99 0.018122 -25.99 0.983749 100.76
6.61130100 0.982581 162.59 0.020850 -12.03 0.020850 -12.03 0.983706 100.45
6.61130200 0.982508 162.26 0.024545 -1.864 0.024545 -1.864 0.983632 100.14
6.61130300 0.982405 161.93 0.028834 5.3722 0.028834 5.3722 0.983529 99.836
6.61130400 0.982272 161.60 0.033487 10.579 0.033487 10.579 0.983395 99.530
6.61130500 0.982110 161.27 0.038369 14.408 0.038369 14.408 0.983231 99.223
6.61130600 0.981917 160.94 0.043400 17.285 0.043400 17.285 0.983038 98.917
6.61130700 0.981695 160.62 0.048532 19.491 0.048532 19.491 0.982815 98.612
6.61130800 0.981443 160.29 0.053732 21.210 0.053732 21.210 0.982562 98.306
6.61130900 0.981161 159.96 0.058980 22.566 0.058980 22.566 0.982279 98.001
6.61131000 0.980850 159.64 0.064263 23.648 0.064263 23.648 0.981967 97.697
6.61131100 0.980510 159.31 0.069569 24.515 0.069569 24.515 0.981626 97.393
6.61131200 0.980141 158.99 0.074892 25.214 0.074892 25.214 0.981256 97.089
6.61131300 0.979743 158.66 0.080225 25.777 0.080225 25.777 0.980857 96.785
6.61131400 0.979316 158.34 0.085565 26.231 0.085565 26.231 0.980429 96.482
6.61131500 0.978861 158.01 0.090907 26.593 0.090907 26.593 0.979972 96.180
6.61131600 0.978377 157.69 0.096250 26.880 0.096250 26.880 0.979487 95.878
6.61131700 0.977864 157.37 0.101592 27.104 0.101592 27.104 0.978973 95.576
6.61131800 0.977324 157.04 0.106929 27.274 0.106929 27.274 0.978432 95.275
6.61131900 0.976756 156.72 0.112260 27.398 0.112260 27.398 0.977862 94.975