! Sonnet Data File
! From: em Version : 14.52
! From Project: w6
! Data is De-embedded 
! Data File Written: 07/07/2018 08:27:55
!< HDATE 07/02/2018 16:03:02
!< MDATE 07/06/2018 18:06:56
# GHZ S MA R 50.00000
6.00000000 0.022167 51.299 0.999754 -40.41 0.999754 -40.41 0.022167 47.885
!< P1 F=6.0 Eeff=(5.67079551 -5.1699e-6) Z0=(51.6050524 2.3525e-5) R=0.00805053 C=0.00301082 
!< P2 F=6.0 Eeff=(5.67079551 -5.1699e-6) Z0=(51.6050524 2.3525e-5) R=0.00805053 C=0.00301082 
6.00500000 0.022182 51.267 0.999754 -40.44 0.999754 -40.44 0.022182 47.849
6.01000000 0.022197 51.235 0.999753 -40.48 0.999753 -40.48 0.022197 47.814
6.01500000 0.022213 51.202 0.999753 -40.51 0.999753 -40.51 0.022213 47.779
6.02000000 0.022228 51.170 0.999753 -40.54 0.999753 -40.54 0.022228 47.744
6.02500000 0.022243 51.138 0.999752 -40.58 0.999752 -40.58 0.022243 47.708
6.03000000 0.022258 51.106 0.999752 -40.61 0.999752 -40.61 0.022258 47.673
6.03500000 0.022274 51.074 0.999752 -40.64 0.999752 -40.64 0.022274 47.638
6.04000000 0.022289 51.042 0.999751 -40.68 0.999751 -40.68 0.022289 47.603
6.04500000 0.022304 51.010 0.999751 -40.71 0.999751 -40.71 0.022304 47.568
6.05000000 0.022319 50.978 0.999751 -40.75 0.999751 -40.75 0.022319 47.532
6.05500000 0.022334 50.946 0.999750 -40.78 0.999750 -40.78 0.022334 47.497
6.06000000 0.022349 50.913 0.999750 -40.81 0.999750 -40.81 0.022350 47.462
6.06500000 0.022365 50.881 0.999750 -40.85 0.999750 -40.85 0.022365 47.427
6.07000000 0.022380 50.849 0.999749 -40.88 0.999749 -40.88 0.022380 47.391
6.07500000 0.022395 50.817 0.999749 -40.91 0.999749 -40.91 0.022395 47.356
6.08000000 0.022410 50.785 0.999748 -40.95 0.999748 -40.95 0.022410 47.321
6.08500000 0.022425 50.753 0.999748 -40.98 0.999748 -40.98 0.022425 47.286
6.09000000 0.022440 50.721 0.999748 -41.02 0.999748 -41.02 0.022440 47.251
6.09500000 0.022455 50.688 0.999747 -41.05 0.999747 -41.05 0.022455 47.215
6.10000000 0.022471 50.656 0.999747 -41.08 0.999747 -41.08 0.022471 47.180
6.10500000 0.022486 50.624 0.999747 -41.12 0.999747 -41.12 0.022486 47.145
6.11000000 0.022501 50.592 0.999746 -41.15 0.999746 -41.15 0.022501 47.110
6.11500000 0.022516 50.560 0.999746 -41.18 0.999746 -41.18 0.022516 47.074
6.12000000 0.022531 50.528 0.999746 -41.22 0.999746 -41.22 0.022531 47.039
6.12500000 0.022546 50.496 0.999745 -41.25 0.999745 -41.25 0.022546 47.004
6.13000000 0.022561 50.464 0.999745 -41.28 0.999745 -41.28 0.022561 46.969
6.13500000 0.022576 50.431 0.999745 -41.32 0.999745 -41.32 0.022576 46.934
6.14000000 0.022591 50.399 0.999744 -41.35 0.999744 -41.35 0.022591 46.898
6.14500000 0.022606 50.367 0.999744 -41.39 0.999744 -41.39 0.022606 46.863
6.15000000 0.022621 50.335 0.999744 -41.42 0.999744 -41.42 0.022621 46.828
6.15500000 0.022636 50.303 0.999743 -41.45 0.999743 -41.45 0.022636 46.793
6.16000000 0.022651 50.271 0.999743 -41.49 0.999743 -41.49 0.022651 46.758
6.16500000 0.022666 50.238 0.999743 -41.52 0.999743 -41.52 0.022666 46.722
6.17000000 0.022681 50.206 0.999742 -41.55 0.999742 -41.55 0.022681 46.687
6.17500000 0.022696 50.174 0.999742 -41.59 0.999742 -41.59 0.022696 46.652
6.18000000 0.022711 50.142 0.999742 -41.62 0.999742 -41.62 0.022711 46.617
6.18500000 0.022726 50.110 0.999741 -41.66 0.999741 -41.66 0.022726 46.582
6.19000000 0.022741 50.078 0.999741 -41.69 0.999741 -41.69 0.022741 46.546
6.19500000 0.022755 50.045 0.999741 -41.72 0.999741 -41.72 0.022756 46.511
6.20000000 0.022770 50.013 0.999740 -41.76 0.999740 -41.76 0.022770 46.476
6.20500000 0.022785 49.981 0.999740 -41.79 0.999740 -41.79 0.022785 46.441
6.21000000 0.022800 49.949 0.999740 -41.82 0.999740 -41.82 0.022800 46.406
6.21500000 0.022815 49.917 0.999739 -41.86 0.999739 -41.86 0.022815 46.370
6.22000000 0.022830 49.885 0.999739 -41.89 0.999739 -41.89 0.022830 46.335
6.22500000 0.022845 49.852 0.999739 -41.92 0.999739 -41.92 0.022845 46.300
6.23000000 0.022860 49.820 0.999738 -41.96 0.999738 -41.96 0.022860 46.265
6.23500000 0.022874 49.788 0.999738 -41.99 0.999738 -41.99 0.022874 46.230
6.24000000 0.022889 49.756 0.999738 -42.03 0.999738 -42.03 0.022889 46.195
6.24500000 0.022904 49.724 0.999737 -42.06 0.999737 -42.06 0.022904 46.159
6.25000000 0.022919 49.691 0.999737 -42.09 0.999737 -42.09 0.022919 46.124
6.25500000 0.022933 49.659 0.999737 -42.13 0.999737 -42.13 0.022933 46.089
6.26000000 0.022948 49.627 0.999736 -42.16 0.999736 -42.16 0.022948 46.054
6.26500000 0.022963 49.595 0.999736 -42.19 0.999736 -42.19 0.022963 46.019
6.27000000 0.022978 49.563 0.999736 -42.23 0.999736 -42.23 0.022978 45.984
6.27500000 0.022992 49.530 0.999735 -42.26 0.999735 -42.26 0.022992 45.948
6.28000000 0.023007 49.498 0.999735 -42.30 0.999735 -42.30 0.023007 45.913
6.28500000 0.023022 49.466 0.999735 -42.33 0.999735 -42.33 0.023022 45.878
6.29000000 0.023037 49.434 0.999734 -42.36 0.999734 -42.36 0.023036 45.843
6.29500000 0.023051 49.401 0.999734 -42.40 0.999734 -42.40 0.023051 45.808
6.30000000 0.023066 49.369 0.999734 -42.43 0.999734 -42.43 0.023066 45.773
6.30500000 0.023080 49.337 0.999733 -42.46 0.999733 -42.46 0.023080 45.738
6.31000000 0.023095 49.305 0.999733 -42.50 0.999733 -42.50 0.023095 45.702
6.31500000 0.023110 49.272 0.999733 -42.53 0.999733 -42.53 0.023110 45.667
6.32000000 0.023124 49.240 0.999732 -42.56 0.999732 -42.56 0.023124 45.632
6.32500000 0.023139 49.208 0.999732 -42.60 0.999732 -42.60 0.023139 45.597
!< P1 F=6.325 Eeff=(5.67077309 -5.1695e-6) Z0=(51.6049029 2.3525e-5) R=0.00763327 C=0.00301081 
!< P2 F=6.325 Eeff=(5.67077309 -5.1695e-6) Z0=(51.6049029 2.3525e-5) R=0.00763327 C=0.00301081 
6.33000000 0.023153 49.176 0.999732 -42.63 0.999732 -42.63 0.023153 45.562
6.33500000 0.023168 49.143 0.999731 -42.67 0.999731 -42.67 0.023168 45.527
6.34000000 0.023183 49.111 0.999731 -42.70 0.999731 -42.70 0.023183 45.492
6.34500000 0.023197 49.079 0.999731 -42.73 0.999731 -42.73 0.023197 45.457
6.35000000 0.023212 49.047 0.999730 -42.77 0.999730 -42.77 0.023212 45.422
6.35500000 0.023226 49.014 0.999730 -42.80 0.999730 -42.80 0.023226 45.386
6.36000000 0.023241 48.982 0.999730 -42.83 0.999730 -42.83 0.023241 45.351
6.36500000 0.023255 48.950 0.999729 -42.87 0.999729 -42.87 0.023255 45.316
6.37000000 0.023270 48.917 0.999729 -42.90 0.999729 -42.90 0.023270 45.281
6.37500000 0.023284 48.885 0.999729 -42.94 0.999729 -42.94 0.023284 45.246
6.38000000 0.023298 48.853 0.999728 -42.97 0.999728 -42.97 0.023298 45.211
6.38500000 0.023313 48.820 0.999728 -43.00 0.999728 -43.00 0.023313 45.176
6.39000000 0.023327 48.788 0.999728 -43.04 0.999728 -43.04 0.023327 45.141
6.39500000 0.023342 48.756 0.999727 -43.07 0.999727 -43.07 0.023342 45.106
6.40000000 0.023356 48.723 0.999727 -43.10 0.999727 -43.10 0.023356 45.071
6.40500000 0.023370 48.691 0.999727 -43.14 0.999727 -43.14 0.023370 45.036
6.41000000 0.023385 48.659 0.999726 -43.17 0.999726 -43.17 0.023385 45.001
6.41500000 0.023399 48.626 0.999726 -43.20 0.999726 -43.20 0.023399 44.966
6.42000000 0.023413 48.594 0.999726 -43.24 0.999726 -43.24 0.023413 44.931
6.42500000 0.023428 48.561 0.999725 -43.27 0.999725 -43.27 0.023428 44.896
6.43000000 0.023442 48.529 0.999725 -43.31 0.999725 -43.31 0.023442 44.861
6.43500000 0.023456 48.496 0.999725 -43.34 0.999725 -43.34 0.023456 44.826
6.44000000 0.023470 48.464 0.999724 -43.37 0.999724 -43.37 0.023470 44.791
6.44500000 0.023485 48.432 0.999724 -43.41 0.999724 -43.41 0.023484 44.756
6.45000000 0.023499 48.399 0.999724 -43.44 0.999724 -43.44 0.023499 44.721
6.45500000 0.023513 48.367 0.999723 -43.47 0.999723 -43.47 0.023513 44.686
6.46000000 0.023527 48.334 0.999723 -43.51 0.999723 -43.51 0.023527 44.651
6.46500000 0.023541 48.302 0.999723 -43.54 0.999723 -43.54 0.023541 44.616
6.47000000 0.023555 48.269 0.999722 -43.58 0.999722 -43.58 0.023555 44.581
6.47500000 0.023569 48.237 0.999722 -43.61 0.999722 -43.61 0.023569 44.547
6.48000000 0.023583 48.204 0.999722 -43.64 0.999722 -43.64 0.023583 44.512
6.48500000 0.023597 48.172 0.999721 -43.68 0.999721 -43.68 0.023597 44.477
6.49000000 0.023611 48.139 0.999721 -43.71 0.999721 -43.71 0.023611 44.442
6.49500000 0.023625 48.106 0.999721 -43.74 0.999721 -43.74 0.023625 44.407
6.50000000 0.023639 48.074 0.999720 -43.78 0.999720 -43.78 0.023639 44.372
6.50500000 0.023653 48.041 0.999720 -43.81 0.999720 -43.81 0.023653 44.338
6.51000000 0.023667 48.009 0.999720 -43.85 0.999720 -43.85 0.023667 44.303
6.51500000 0.023681 47.976 0.999719 -43.88 0.999719 -43.88 0.023681 44.268
6.52000000 0.023695 47.943 0.999719 -43.91 0.999719 -43.91 0.023695 44.233
6.52500000 0.023709 47.911 0.999719 -43.95 0.999719 -43.95 0.023709 44.198
6.53000000 0.023723 47.878 0.999718 -43.98 0.999718 -43.98 0.023722 44.164
6.53500000 0.023736 47.845 0.999718 -44.01 0.999718 -44.01 0.023736 44.129
6.54000000 0.023750 47.812 0.999718 -44.05 0.999718 -44.05 0.023750 44.094
6.54500000 0.023764 47.780 0.999717 -44.08 0.999717 -44.08 0.023764 44.060
6.55000000 0.023777 47.747 0.999717 -44.11 0.999717 -44.11 0.023777 44.025
6.55500000 0.023791 47.714 0.999717 -44.15 0.999717 -44.15 0.023791 43.990
6.56000000 0.023805 47.681 0.999716 -44.18 0.999716 -44.18 0.023805 43.956
6.56500000 0.023818 47.648 0.999716 -44.22 0.999716 -44.22 0.023818 43.921
6.57000000 0.023832 47.615 0.999716 -44.25 0.999716 -44.25 0.023832 43.887
6.57500000 0.023845 47.582 0.999715 -44.28 0.999715 -44.28 0.023845 43.852
6.58000000 0.023859 47.549 0.999715 -44.32 0.999715 -44.32 0.023859 43.818
6.58500000 0.023872 47.516 0.999715 -44.35 0.999715 -44.35 0.023872 43.783
6.59000000 0.023885 47.483 0.999714 -44.38 0.999714 -44.38 0.023885 43.749
6.59500000 0.023899 47.450 0.999714 -44.42 0.999714 -44.42 0.023899 43.714
6.60000000 0.023912 47.417 0.999714 -44.45 0.999714 -44.45 0.023912 43.680
6.60500000 0.023925 47.384 0.999713 -44.49 0.999713 -44.49 0.023925 43.646
6.61000000 0.023938 47.351 0.999713 -44.52 0.999713 -44.52 0.023938 43.611
6.61500000 0.023952 47.318 0.999713 -44.55 0.999713 -44.55 0.023951 43.577
6.62000000 0.023965 47.284 0.999713 -44.59 0.999713 -44.59 0.023964 43.543
6.62500000 0.023978 47.251 0.999712 -44.62 0.999712 -44.62 0.023977 43.509
6.63000000 0.023990 47.217 0.999712 -44.65 0.999712 -44.65 0.023990 43.475
6.63500000 0.024003 47.184 0.999712 -44.69 0.999712 -44.69 0.024003 43.441
6.64000000 0.024016 47.151 0.999711 -44.72 0.999711 -44.72 0.024016 43.407
6.64500000 0.024029 47.117 0.999711 -44.76 0.999711 -44.76 0.024029 43.373
6.65000000 0.024042 47.083 0.999711 -44.79 0.999711 -44.79 0.024041 43.339
6.65500000 0.024054 47.050 0.999710 -44.82 0.999710 -44.82 0.024054 43.305
6.66000000 0.024067 47.016 0.999710 -44.86 0.999710 -44.86 0.024066 43.271
6.66500000 0.024079 46.982 0.999710 -44.89 0.999710 -44.89 0.024079 43.237
6.67000000 0.024091 46.948 0.999709 -44.92 0.999709 -44.92 0.024091 43.204
6.67500000 0.024103 46.914 0.999709 -44.96 0.999709 -44.96 0.024103 43.170
6.68000000 0.024116 46.880 0.999709 -44.99 0.999709 -44.99 0.024115 43.137
6.68500000 0.024128 46.845 0.999709 -45.03 0.999709 -45.03 0.024127 43.103
6.69000000 0.024139 46.811 0.999708 -45.06 0.999708 -45.06 0.024139 43.070
6.69500000 0.024151 46.777 0.999708 -45.09 0.999708 -45.09 0.024151 43.037
6.70000000 0.024163 46.742 0.999708 -45.13 0.999708 -45.13 0.024163 43.004
6.70500000 0.024174 46.707 0.999707 -45.16 0.999707 -45.16 0.024174 42.971
6.71000000 0.024185 46.672 0.999707 -45.20 0.999707 -45.20 0.024185 42.938
6.71500000 0.024197 46.637 0.999707 -45.23 0.999707 -45.23 0.024196 42.906
6.72000000 0.024207 46.602 0.999707 -45.26 0.999707 -45.26 0.024207 42.873
6.72500000 0.024218 46.566 0.999706 -45.30 0.999706 -45.30 0.024218 42.841
6.73000000 0.024229 46.531 0.999706 -45.33 0.999706 -45.33 0.024229 42.809
6.73500000 0.024239 46.495 0.999706 -45.36 0.999706 -45.36 0.024239 42.777
6.74000000 0.024249 46.459 0.999706 -45.40 0.999706 -45.40 0.024249 42.745
6.74500000 0.024259 46.422 0.999705 -45.43 0.999705 -45.43 0.024259 42.714
6.75000000 0.024268 46.386 0.999705 -45.47 0.999705 -45.47 0.024268 42.682
6.75500000 0.024277 46.349 0.999705 -45.50 0.999705 -45.50 0.024277 42.651
6.76000000 0.024286 46.311 0.999705 -45.53 0.999705 -45.53 0.024286 42.621
6.76500000 0.024294 46.273 0.999705 -45.57 0.999705 -45.57 0.024294 42.591
6.77000000 0.024302 46.235 0.999704 -45.60 0.999704 -45.60 0.024302 42.561
6.77500000 0.024310 46.196 0.999704 -45.64 0.999704 -45.64 0.024309 42.531
6.78000000 0.024316 46.157 0.999704 -45.67 0.999704 -45.67 0.024316 42.502
6.78500000 0.024322 46.117 0.999704 -45.71 0.999704 -45.71 0.024322 42.474
6.79000000 0.024328 46.076 0.999704 -45.74 0.999704 -45.74 0.024328 42.446
6.79500000 0.024332 46.034 0.999704 -45.77 0.999704 -45.77 0.024332 42.420
6.80000000 0.024336 45.992 0.999704 -45.81 0.999704 -45.81 0.024336 42.393
6.80500000 0.024338 45.948 0.999703 -45.84 0.999703 -45.84 0.024338 42.368
6.81000000 0.024340 45.903 0.999703 -45.88 0.999703 -45.88 0.024340 42.344
6.81500000 0.024339 45.857 0.999703 -45.91 0.999703 -45.91 0.024339 42.322
6.82000000 0.024337 45.808 0.999703 -45.95 0.999703 -45.95 0.024337 42.301
6.82500000 0.024333 45.758 0.999704 -45.98 0.999704 -45.98 0.024333 42.282
6.83000000 0.024327 45.705 0.999704 -46.02 0.999704 -46.02 0.024326 42.265
6.83500000 0.024317 45.648 0.999704 -46.05 0.999704 -46.05 0.024317 42.251
6.84000000 0.024303 45.588 0.999704 -46.09 0.999704 -46.09 0.024303 42.240
6.84500000 0.024284 45.523 0.999705 -46.12 0.999705 -46.12 0.024284 42.235
6.85000000 0.024259 45.450 0.999705 -46.16 0.999705 -46.16 0.024259 42.234
6.85500000 0.024226 45.370 0.999706 -46.19 0.999706 -46.19 0.024226 42.242
6.86000000 0.024182 45.277 0.999707 -46.23 0.999707 -46.23 0.024181 42.260
6.86500000 0.024121 45.167 0.999709 -46.27 0.999709 -46.27 0.024121 42.293
6.87000000 0.024037 45.032 0.999711 -46.31 0.999711 -46.31 0.024037 42.349
6.87500000 0.023917 44.858 0.999714 -46.35 0.999714 -46.35 0.023917 42.440
6.88000000 0.023735 44.615 0.999718 -46.40 0.999718 -46.40 0.023735 42.591
6.88500000 0.023438 44.239 0.999725 -46.45 0.999725 -46.45 0.023438 42.860
6.89000000 0.022878 43.551 0.999738 -46.52 0.999738 -46.52 0.022878 43.411
6.89500000 0.021489 41.760 0.999767 -46.64 0.999767 -46.64 0.021491 44.964
!< P1 F=6.895 Eeff=(5.67073178 -5.1697e-6) Z0=(51.604623 2.3525e-5) R=0.00700759 C=0.00301079 
!< P2 F=6.895 Eeff=(5.67073178 -5.1697e-6) Z0=(51.604623 2.3525e-5) R=0.00700759 C=0.00301079 
6.89520000 0.021391 41.624 0.999769 -46.65 0.999769 -46.65 0.021392 45.085
6.89540000 0.021285 41.479 0.999771 -46.66 0.999771 -46.66 0.021287 45.214
6.89560000 0.021174 41.323 0.999773 -46.67 0.999773 -46.67 0.021176 45.354
6.89580000 0.021055 41.156 0.999776 -46.68 0.999776 -46.68 0.021057 45.504
6.89600000 0.020928 40.974 0.999778 -46.69 0.999778 -46.69 0.020930 45.667
6.89620000 0.020792 40.778 0.999781 -46.70 0.999781 -46.70 0.020794 45.845
6.89640000 0.020646 40.564 0.999784 -46.71 0.999784 -46.71 0.020648 46.038
6.89660000 0.020489 40.331 0.999787 -46.72 0.999787 -46.72 0.020492 46.249
6.89680000 0.020320 40.076 0.999790 -46.73 0.999790 -46.73 0.020323 46.481
6.89700000 0.020138 39.795 0.999793 -46.74 0.999793 -46.74 0.020141 46.737
6.89720000 0.019940 39.484 0.999797 -46.76 0.999797 -46.76 0.019943 47.021
6.89740000 0.019724 39.138 0.999801 -46.77 0.999801 -46.77 0.019728 47.338
6.89760000 0.019489 38.752 0.999805 -46.79 0.999805 -46.79 0.019493 47.694
6.89780000 0.019232 38.316 0.999810 -46.81 0.999810 -46.81 0.019236 48.095
6.89800000 0.018948 37.822 0.999815 -46.83 0.999815 -46.83 0.018953 48.553
6.89820000 0.018634 37.256 0.999820 -46.85 0.999820 -46.85 0.018641 49.078
6.89840000 0.018286 36.603 0.999826 -46.87 0.999826 -46.87 0.018293 49.687
6.89860000 0.017897 35.839 0.999832 -46.90 0.999832 -46.90 0.017905 50.402
6.89880000 0.017460 34.934 0.999839 -46.93 0.999839 -46.93 0.017470 51.251
6.89900000 0.016966 33.846 0.999846 -46.97 0.999846 -46.97 0.016977 52.277
6.89920000 0.016404 32.515 0.999854 -47.01 0.999854 -47.01 0.016417 53.538
6.89940000 0.015760 30.847 0.999862 -47.05 0.999862 -47.05 0.015776 55.126
6.89960000 0.015017 28.702 0.999871 -47.11 0.999871 -47.11 0.015037 57.178
6.89980000 0.014155 25.847 0.999880 -47.17 0.999880 -47.17 0.014180 59.925
6.90000000 0.013155 21.880 0.999889 -47.25 0.999889 -47.25 0.013188 63.762
6.90020000 0.012006 16.057 0.999897 -47.35 0.999897 -47.35 0.012053 69.421
6.90040000 0.010748 6.9236 0.999902 -47.48 0.999902 -47.48 0.010816 78.330
6.90060000 0.009600 -8.330 0.999900 -47.65 0.999900 -47.65 0.009703 93.203
6.90080000 0.009364 -33.18 0.999879 -47.88 0.999879 -47.88 0.009515 117.27
6.90100000 0.011909 -63.60 0.999810 -48.23 0.999810 -48.23 0.012093 146.44
6.90120000 0.019768 -87.30 0.999595 -48.80 0.999595 -48.80 0.019963 168.64
6.90140000 0.038146 -102.4 0.998812 -49.92 0.998812 -49.92 0.038368 -178.7
!< P1 F=6.9014 Eeff=(5.67073141 -5.1696e-6) Z0=(51.6046208 2.3525e-5) R=0.0070039 C=0.00301079 
!< P2 F=6.9014 Eeff=(5.67073141 -5.1696e-6) Z0=(51.6046208 2.3525e-5) R=0.0070039 C=0.00301079 
6.90140200 0.038429 -102.6 0.998797 -49.94 0.998797 -49.94 0.038651 -178.6
6.90140400 0.038714 -102.7 0.998781 -49.96 0.998781 -49.96 0.038937 -178.6
6.90140600 0.039003 -102.8 0.998765 -49.97 0.998765 -49.97 0.039226 -178.5
6.90140800 0.039294 -102.9 0.998749 -49.99 0.998749 -49.99 0.039518 -178.4
6.90141000 0.039588 -103.1 0.998733 -50.01 0.998733 -50.01 0.039813 -178.3
6.90141200 0.039886 -103.2 0.998716 -50.03 0.998716 -50.03 0.040111 -178.2
6.90141400 0.040186 -103.3 0.998699 -50.04 0.998699 -50.04 0.040412 -178.1
6.90141600 0.040490 -103.4 0.998682 -50.06 0.998682 -50.06 0.040716 -178.1
6.90141800 0.040797 -103.5 0.998665 -50.08 0.998665 -50.08 0.041024 -178.0
6.90142000 0.041107 -103.7 0.998647 -50.10 0.998647 -50.10 0.041334 -177.9
6.90142200 0.041420 -103.8 0.998629 -50.12 0.998629 -50.12 0.041648 -177.8
6.90142400 0.041737 -103.9 0.998610 -50.14 0.998610 -50.14 0.041966 -177.7
6.90142600 0.042057 -104.0 0.998591 -50.15 0.998591 -50.15 0.042286 -177.7
6.90142800 0.042380 -104.1 0.998572 -50.17 0.998572 -50.17 0.042610 -177.6
6.90143000 0.042707 -104.3 0.998553 -50.19 0.998553 -50.19 0.042938 -177.5
6.90143200 0.043038 -104.4 0.998533 -50.21 0.998533 -50.21 0.043269 -177.4
6.90143400 0.043372 -104.5 0.998513 -50.23 0.998513 -50.23 0.043604 -177.3
6.90143600 0.043710 -104.6 0.998492 -50.25 0.998492 -50.25 0.043942 -177.3
6.90143800 0.044051 -104.7 0.998471 -50.27 0.998471 -50.27 0.044284 -177.2
6.90144000 0.044396 -104.9 0.998450 -50.29 0.998450 -50.29 0.044630 -177.1
6.90144200 0.044745 -105.0 0.998429 -50.31 0.998429 -50.31 0.044980 -177.1
6.90144400 0.045098 -105.1 0.998407 -50.33 0.998407 -50.33 0.045333 -177.0
6.90144600 0.045455 -105.2 0.998384 -50.35 0.998384 -50.35 0.045691 -176.9
6.90144800 0.045816 -105.3 0.998361 -50.38 0.998361 -50.38 0.046052 -176.8
6.90145000 0.046181 -105.5 0.998338 -50.40 0.998338 -50.40 0.046418 -176.8
6.90145200 0.046550 -105.6 0.998314 -50.42 0.998314 -50.42 0.046788 -176.7
6.90145400 0.046923 -105.7 0.998290 -50.44 0.998290 -50.44 0.047162 -176.6
6.90145600 0.047300 -105.8 0.998266 -50.46 0.998266 -50.46 0.047540 -176.6
6.90145800 0.047682 -105.9 0.998240 -50.48 0.998240 -50.48 0.047922 -176.5
6.90146000 0.048068 -106.0 0.998215 -50.51 0.998215 -50.51 0.048309 -176.4
6.90146200 0.048459 -106.2 0.998189 -50.53 0.998189 -50.53 0.048701 -176.4
6.90146400 0.048854 -106.3 0.998162 -50.55 0.998162 -50.55 0.049097 -176.3
6.90146600 0.049254 -106.4 0.998135 -50.58 0.998135 -50.58 0.049498 -176.2
6.90146800 0.049659 -106.5 0.998108 -50.60 0.998108 -50.60 0.049903 -176.2
6.90147000 0.050068 -106.6 0.998080 -50.62 0.998080 -50.62 0.050313 -176.1
6.90147200 0.050483 -106.7 0.998051 -50.65 0.998051 -50.65 0.050729 -176.0
6.90147400 0.050902 -106.9 0.998022 -50.67 0.998022 -50.67 0.051149 -176.0
6.90147600 0.051326 -107.0 0.997992 -50.70 0.997992 -50.70 0.051574 -175.9
6.90147800 0.051756 -107.1 0.997961 -50.72 0.997961 -50.72 0.052004 -175.9
6.90148000 0.052191 -107.2 0.997930 -50.75 0.997930 -50.75 0.052440 -175.8
6.90148200 0.052631 -107.3 0.997899 -50.77 0.997899 -50.77 0.052881 -175.7
6.90148400 0.053076 -107.4 0.997867 -50.80 0.997867 -50.80 0.053327 -175.7
6.90148600 0.053527 -107.5 0.997834 -50.83 0.997834 -50.83 0.053779 -175.6
6.90148800 0.053984 -107.7 0.997800 -50.85 0.997800 -50.85 0.054237 -175.6
6.90149000 0.054446 -107.8 0.997766 -50.88 0.997766 -50.88 0.054700 -175.5
6.90149200 0.054914 -107.9 0.997731 -50.91 0.997731 -50.91 0.055169 -175.5
6.90149400 0.055388 -108.0 0.997695 -50.93 0.997695 -50.93 0.055644 -175.4
6.90149600 0.055868 -108.1 0.997659 -50.96 0.997659 -50.96 0.056125 -175.4
6.90149800 0.056354 -108.2 0.997622 -50.99 0.997622 -50.99 0.056612 -175.3
6.90150000 0.056847 -108.3 0.997584 -51.02 0.997584 -51.02 0.057106 -175.3
6.90150200 0.057346 -108.5 0.997545 -51.05 0.997545 -51.05 0.057606 -175.2
6.90150400 0.057851 -108.6 0.997505 -51.08 0.997505 -51.08 0.058112 -175.2
6.90150600 0.058363 -108.7 0.997465 -51.11 0.997465 -51.11 0.058625 -175.1
6.90150800 0.058882 -108.8 0.997423 -51.14 0.997423 -51.14 0.059145 -175.1
6.90151000 0.059408 -108.9 0.997381 -51.17 0.997381 -51.17 0.059672 -175.0
6.90151200 0.059941 -109.0 0.997338 -51.20 0.997338 -51.20 0.060206 -175.0
6.90151400 0.060480 -109.2 0.997294 -51.23 0.997294 -51.23 0.060747 -174.9
6.90151600 0.061028 -109.3 0.997249 -51.26 0.997249 -51.26 0.061295 -174.9
6.90151800 0.061582 -109.4 0.997203 -51.30 0.997203 -51.30 0.061851 -174.8
6.90152000 0.062144 -109.5 0.997156 -51.33 0.997156 -51.33 0.062414 -174.8
6.90152200 0.062714 -109.6 0.997108 -51.36 0.997108 -51.36 0.062985 -174.8
6.90152400 0.063292 -109.7 0.997058 -51.39 0.997058 -51.39 0.063565 -174.7
6.90152600 0.063878 -109.9 0.997008 -51.43 0.997008 -51.43 0.064152 -174.7
6.90152800 0.064472 -110.0 0.996956 -51.46 0.996956 -51.46 0.064747 -174.6
6.90153000 0.065075 -110.1 0.996904 -51.50 0.996904 -51.50 0.065351 -174.6
6.90153200 0.065686 -110.2 0.996850 -51.53 0.996850 -51.53 0.065964 -174.6
6.90153400 0.066306 -110.3 0.996795 -51.57 0.996795 -51.57 0.066585 -174.5
6.90153600 0.066935 -110.4 0.996738 -51.61 0.996738 -51.61 0.067215 -174.5
6.90153800 0.067573 -110.6 0.996680 -51.64 0.996680 -51.64 0.067854 -174.5
6.90154000 0.068220 -110.7 0.996621 -51.68 0.996621 -51.68 0.068503 -174.4
6.90154200 0.068877 -110.8 0.996561 -51.72 0.996561 -51.72 0.069161 -174.4
6.90154400 0.069544 -110.9 0.996499 -51.76 0.996499 -51.76 0.069830 -174.4
6.90154600 0.070221 -111.0 0.996435 -51.80 0.996435 -51.80 0.070508 -174.3
6.90154800 0.070907 -111.1 0.996370 -51.84 0.996370 -51.84 0.071196 -174.3
6.90155000 0.071604 -111.3 0.996303 -51.88 0.996303 -51.88 0.071894 -174.3
6.90155200 0.072312 -111.4 0.996235 -51.92 0.996235 -51.92 0.072604 -174.2
6.90155400 0.073031 -111.5 0.996165 -51.96 0.996165 -51.96 0.073324 -174.2
6.90155600 0.073761 -111.6 0.996093 -52.00 0.996093 -52.00 0.074055 -174.2
6.90155800 0.074502 -111.7 0.996020 -52.05 0.996020 -52.05 0.074798 -174.2
6.90156000 0.075255 -111.9 0.995944 -52.09 0.995944 -52.09 0.075553 -174.1
6.90156200 0.076020 -112.0 0.995867 -52.13 0.995867 -52.13 0.076319 -174.1
6.90156400 0.076797 -112.1 0.995788 -52.18 0.995788 -52.18 0.077098 -174.1
6.90156600 0.077586 -112.2 0.995706 -52.22 0.995706 -52.22 0.077889 -174.1
6.90156800 0.078388 -112.4 0.995623 -52.27 0.995623 -52.27 0.078693 -174.1
6.90157000 0.079203 -112.5 0.995537 -52.32 0.995537 -52.32 0.079510 -174.0
6.90157200 0.080032 -112.6 0.995449 -52.37 0.995449 -52.37 0.080341 -174.0
6.90157400 0.080875 -112.7 0.995358 -52.41 0.995358 -52.41 0.081185 -174.0
6.90157600 0.081731 -112.9 0.995266 -52.46 0.995266 -52.46 0.082043 -174.0
6.90157800 0.082602 -113.0 0.995170 -52.51 0.995170 -52.51 0.082916 -174.0
6.90158000 0.083488 -113.1 0.995072 -52.57 0.995072 -52.57 0.083804 -174.0
6.90158200 0.084389 -113.2 0.994972 -52.62 0.994972 -52.62 0.084707 -174.0
6.90158400 0.085305 -113.4 0.994868 -52.67 0.994868 -52.67 0.085625 -173.9
6.90158600 0.086237 -113.5 0.994762 -52.73 0.994762 -52.73 0.086559 -173.9
6.90158800 0.087186 -113.6 0.994653 -52.78 0.994653 -52.78 0.087510 -173.9
6.90159000 0.088152 -113.7 0.994540 -52.84 0.994540 -52.84 0.088478 -173.9
6.90159200 0.089134 -113.9 0.994425 -52.89 0.994425 -52.89 0.089463 -173.9
6.90159400 0.090135 -114.0 0.994306 -52.95 0.994306 -52.95 0.090465 -173.9
6.90159600 0.091153 -114.1 0.994183 -53.01 0.994183 -53.01 0.091486 -173.9
6.90159800 0.092190 -114.3 0.994057 -53.07 0.994057 -53.07 0.092526 -173.9
6.90160000 0.093247 -114.4 0.993927 -53.13 0.993927 -53.13 0.093584 -173.9
6.90160200 0.094322 -114.5 0.993794 -53.19 0.993794 -53.19 0.094663 -173.9
6.90160400 0.095419 -114.7 0.993656 -53.26 0.993656 -53.26 0.095761 -173.9
6.90160600 0.096536 -114.8 0.993514 -53.32 0.993514 -53.32 0.096881 -173.9
6.90160800 0.097674 -115.0 0.993368 -53.39 0.993368 -53.39 0.098021 -174.0
6.90161000 0.098834 -115.1 0.993217 -53.45 0.993217 -53.45 0.099184 -174.0
6.90161200 0.100017 -115.2 0.993061 -53.52 0.993061 -53.52 0.100370 -174.0
6.90161400 0.101223 -115.4 0.992901 -53.59 0.992901 -53.59 0.101579 -174.0
6.90161600 0.102453 -115.5 0.992736 -53.66 0.992736 -53.66 0.102812 -174.0
6.90161800 0.103708 -115.7 0.992565 -53.74 0.992565 -53.74 0.104069 -174.0
6.90162000 0.104988 -115.8 0.992388 -53.81 0.992388 -53.81 0.105352 -174.0
6.90162200 0.106295 -116.0 0.992206 -53.89 0.992206 -53.89 0.106661 -174.1
6.90162400 0.107628 -116.1 0.992018 -53.96 0.992018 -53.96 0.107998 -174.1
6.90162600 0.108989 -116.3 0.991824 -54.04 0.991824 -54.04 0.109362 -174.1
6.90162800 0.110378 -116.4 0.991623 -54.12 0.991623 -54.12 0.110754 -174.1
6.90163000 0.111798 -116.6 0.991415 -54.20 0.991415 -54.20 0.112177 -174.2
6.90163200 0.113247 -116.7 0.991200 -54.29 0.991200 -54.29 0.113630 -174.2
6.90163400 0.114728 -116.9 0.990978 -54.37 0.990978 -54.37 0.115114 -174.2
6.90163600 0.116242 -117.1 0.990748 -54.46 0.990748 -54.46 0.116631 -174.3
6.90163800 0.117789 -117.2 0.990510 -54.55 0.990510 -54.55 0.118182 -174.3
6.90164000 0.119371 -117.4 0.990263 -54.64 0.990263 -54.64 0.119767 -174.4
6.90164200 0.120988 -117.5 0.990007 -54.74 0.990007 -54.74 0.121388 -174.4
6.90164400 0.122643 -117.7 0.989742 -54.83 0.989742 -54.83 0.123046 -174.5
6.90164600 0.124335 -117.9 0.989467 -54.93 0.989467 -54.93 0.124743 -174.5
6.90164800 0.126068 -118.1 0.989182 -55.03 0.989182 -55.03 0.126479 -174.6
6.90165000 0.127841 -118.2 0.988887 -55.13 0.988887 -55.13 0.128257 -174.6
6.90165200 0.129657 -118.4 0.988579 -55.24 0.988579 -55.24 0.130076 -174.7
6.90165400 0.131516 -118.6 0.988260 -55.35 0.988260 -55.35 0.131940 -174.7
6.90165600 0.133421 -118.8 0.987929 -55.46 0.987929 -55.46 0.133849 -174.8
6.90165800 0.135373 -119.0 0.987585 -55.57 0.987585 -55.57 0.135806 -174.9
6.90166000 0.137374 -119.1 0.987226 -55.69 0.987226 -55.69 0.137811 -174.9
6.90166200 0.139426 -119.3 0.986854 -55.81 0.986854 -55.81 0.139868 -175.0
6.90166400 0.141530 -119.5 0.986466 -55.93 0.986466 -55.93 0.141977 -175.1
6.90166600 0.143689 -119.7 0.986062 -56.05 0.986062 -56.05 0.144140 -175.2
6.90166800 0.145904 -119.9 0.985641 -56.18 0.985641 -56.18 0.146361 -175.3
6.90167000 0.148179 -120.1 0.985202 -56.31 0.985202 -56.31 0.148640 -175.4
6.90167200 0.150514 -120.3 0.984744 -56.45 0.984744 -56.45 0.150981 -175.5
6.90167400 0.152913 -120.6 0.984267 -56.59 0.984267 -56.59 0.153386 -175.6
6.90167600 0.155379 -120.8 0.983768 -56.73 0.983768 -56.73 0.155857 -175.7
6.90167800 0.157913 -121.0 0.983247 -56.88 0.983247 -56.88 0.158397 -175.8
6.90168000 0.160520 -121.2 0.982703 -57.03 0.982703 -57.03 0.161010 -175.9
6.90168200 0.163201 -121.5 0.982133 -57.19 0.982133 -57.19 0.163697 -176.0
6.90168400 0.165960 -121.7 0.981537 -57.35 0.981537 -57.35 0.166462 -176.1
6.90168600 0.168800 -121.9 0.980913 -57.51 0.980913 -57.51 0.169309 -176.3
6.90168800 0.171725 -122.2 0.980259 -57.68 0.980259 -57.68 0.172241 -176.4
6.90169000 0.174739 -122.4 0.979574 -57.86 0.979574 -57.86 0.175262 -176.6
6.90169200 0.177846 -122.7 0.978855 -58.04 0.978855 -58.04 0.178376 -176.7
6.90169400 0.181050 -123.0 0.978099 -58.23 0.978099 -58.23 0.181587 -176.9
6.90169600 0.184354 -123.2 0.977306 -58.42 0.977306 -58.42 0.184899 -177.0
6.90169800 0.187765 -123.5 0.976472 -58.62 0.976472 -58.62 0.188317 -177.2
6.90170000 0.191287 -123.8 0.975594 -58.83 0.975594 -58.83 0.191847 -177.4
6.90170200 0.194925 -124.1 0.974670 -59.04 0.974670 -59.04 0.195494 -177.6
6.90170400 0.198685 -124.4 0.973696 -59.26 0.973696 -59.26 0.199262 -177.8
6.90170600 0.202573 -124.7 0.972669 -59.49 0.972669 -59.49 0.203159 -178.0
6.90170800 0.206595 -125.0 0.971584 -59.72 0.971584 -59.72 0.207191 -178.2
6.90171000 0.210758 -125.4 0.970439 -59.97 0.970439 -59.97 0.211364 -178.4
6.90171200 0.215070 -125.7 0.969227 -60.22 0.969227 -60.22 0.215685 -178.6
6.90171400 0.219538 -126.0 0.967945 -60.48 0.967945 -60.48 0.220163 -178.9
6.90171600 0.224170 -126.4 0.966587 -60.75 0.966587 -60.75 0.224806 -179.1
6.90171800 0.228975 -126.8 0.965146 -61.04 0.965146 -61.04 0.229622 -179.4
6.90172000 0.233963 -127.2 0.963617 -61.33 0.963617 -61.33 0.234621 -179.7
6.90172200 0.239143 -127.6 0.961992 -61.63 0.961992 -61.63 0.239813 -180.0
6.90172400 0.244526 -128.0 0.960264 -61.95 0.960264 -61.95 0.245208 179.70
6.90172600 0.250124 -128.4 0.958423 -62.28 0.958423 -62.28 0.250819 179.38
6.90172800 0.255948 -128.8 0.956460 -62.63 0.956460 -62.63 0.256657 179.04
6.90173000 0.262013 -129.3 0.954365 -62.99 0.954365 -62.99 0.262736 178.68
6.90173200 0.268332 -129.8 0.952126 -63.36 0.952126 -63.36 0.269069 178.30
6.90173400 0.274920 -130.3 0.949731 -63.76 0.949731 -63.76 0.275673 177.90
6.90173600 0.281794 -130.8 0.947164 -64.17 0.947164 -64.17 0.282562 177.48
6.90173800 0.288971 -131.3 0.944409 -64.59 0.944409 -64.59 0.289756 177.04
6.90174000 0.296469 -131.9 0.941450 -65.04 0.941450 -65.04 0.297271 176.58
6.90174200 0.304309 -132.5 0.938266 -65.51 0.938266 -65.51 0.305129 176.09
6.90174400 0.312513 -133.1 0.934836 -66.01 0.934836 -66.01 0.313351 175.58
6.90174600 0.321102 -133.7 0.931133 -66.52 0.931133 -66.52 0.321960 175.03
6.90174800 0.330102 -134.4 0.927131 -67.07 0.927131 -67.07 0.330981 174.45
6.90175000 0.339540 -135.1 0.922799 -67.64 0.922799 -67.64 0.340441 173.84